/*--------------------------------*- C++ -*----------------------------------*\
  =========                 |
  \\      /  F ield         | OpenFOAM: The Open Source CFD Toolbox
   \\    /   O peration     | Website:  https://openfoam.org
    \\  /    A nd           | Version:  10
     \\/     M anipulation  |
\*---------------------------------------------------------------------------*/
FoamFile
{
    format      ascii;
    class       volScalarField;
    location    "74";
    object      h_0;
}
// * * * * * * * * * * * * * * * * * * * * * * * * * * * * * * * * * * * * * //

dimensions      [0 1 0 0 0 0 0];

internalField   nonuniform List<scalar> 
10000
(
0.00153629
0.00443167
0.00684267
0.00859941
0.00972319
0.0104108
0.0109291
0.0114479
0.0119493
0.0123245
0.0125188
0.0125953
0.0127425
0.013185
0.0139519
0.0147792
0.0153063
0.0152677
0.0146019
0.0135302
0.0124595
0.011643
0.0109812
0.0101672
0.00895376
0.00731243
0.00541846
0.00358107
0.00208135
0.000955593
6.03947e-05
-0.000572041
-0.00068964
-0.000144781
0.000934793
0.00229374
0.0037121
0.00496984
0.00578025
0.00593922
0.00545071
0.00440021
0.00283486
0.00083639
-0.00138902
-0.00359142
-0.0056358
-0.00748475
-0.0090034
-0.00989426
-0.00989411
-0.00900295
-0.00748404
-0.00563492
-0.0035905
-0.00138824
0.000836901
0.00283507
0.00440018
0.00545059
0.00593911
0.00578021
0.0049699
0.00371227
0.00229404
0.000935231
-0.000144266
-0.000689163
-0.000571709
6.05611e-05
0.000955675
0.00208147
0.00358126
0.00541863
0.00731243
0.00895355
0.0101669
0.0109809
0.0116427
0.0124593
0.01353
0.0146016
0.0152673
0.015306
0.0147789
0.0139516
0.0131848
0.0127423
0.0125951
0.0125187
0.0123245
0.0119493
0.0114479
0.0109291
0.0104108
0.00972326
0.0085995
0.00684271
0.00443166
0.00153627
0.00443167
0.0127504
0.0196004
0.0245065
0.0275663
0.0293641
0.0306651
0.0319616
0.033226
0.0341714
0.0346448
0.0348109
0.0352008
0.0364744
0.0387459
0.041269
0.0429718
0.0430182
0.0411755
0.0380969
0.0350377
0.0328018
0.031091
0.028928
0.0255105
0.0207516
0.0152406
0.0099652
0.00575939
0.002664
0.000183844
-0.00160807
-0.00193377
-0.000307763
0.00291074
0.00694392
0.0111082
0.0147477
0.0170465
0.0174393
0.0159485
0.0128091
0.00813593
0.0021609
-0.00449715
-0.0110808
-0.0171756
-0.0226659
-0.0271596
-0.0297904
-0.02979
-0.0271582
-0.0226638
-0.0171731
-0.0110781
-0.0044949
0.00216238
0.00813654
0.012809
0.0159481
0.0174389
0.0170463
0.0147478
0.0111086
0.00694471
0.00291193
-0.000306343
-0.00193243
-0.00160711
0.000184335
0.00266421
0.00575963
0.00996561
0.015241
0.0207516
0.0255099
0.0289271
0.03109
0.032801
0.0350371
0.0380962
0.0411746
0.0430172
0.0429708
0.0412682
0.0387452
0.0364737
0.0352001
0.0348103
0.0346445
0.0341713
0.033226
0.0319616
0.0306651
0.0293641
0.0275665
0.0245067
0.0196006
0.0127505
0.00443166
0.00684267
0.0196004
0.0298967
0.0370157
0.041188
0.0433688
0.0447572
0.0461453
0.0475557
0.0485999
0.0490393
0.0490866
0.0495499
0.0515063
0.0552156
0.0595375
0.0626954
0.063195
0.0605457
0.0558298
0.0512204
0.0481406
0.0460716
0.0432423
0.0381858
0.030781
0.0221809
0.0141662
0.00806716
0.00375421
0.000237369
-0.00241251
-0.00284
-0.000128805
0.00517857
0.0117477
0.0183768
0.0239996
0.0274033
0.0277952
0.0252423
0.0200633
0.0123635
0.00248363
-0.00854594
-0.0194375
-0.0294666
-0.0384261
-0.0457049
-0.0499482
-0.0499474
-0.0457027
-0.0384227
-0.0294625
-0.0194334
-0.00854247
0.00248593
0.0123645
0.0200632
0.0252416
0.0277945
0.027403
0.0239996
0.0183773
0.0117488
0.00518018
-0.00012686
-0.00283813
-0.0024111
0.000238136
0.00375449
0.00806731
0.0141665
0.0221812
0.0307808
0.038185
0.043241
0.0460701
0.0481392
0.0512192
0.0558287
0.0605445
0.0631936
0.062694
0.0595362
0.0552145
0.0515054
0.0495491
0.0490859
0.0490389
0.0485997
0.0475556
0.0461453
0.0447572
0.0433688
0.0411881
0.0370159
0.0298969
0.0196006
0.00684271
0.00859941
0.0245065
0.0370157
0.0451983
0.049423
0.0509962
0.0515271
0.0521189
0.0529001
0.053426
0.0533622
0.0529295
0.0531839
0.0556192
0.0606869
0.0669085
0.0717824
0.0730862
0.0700452
0.0641998
0.058666
0.0554777
0.053843
0.0511149
0.0451254
0.0357843
0.0249395
0.0152157
0.0083217
0.00376941
-4.12046e-05
-0.00307712
-0.00338513
0.000444404
0.00772937
0.0165575
0.0251747
0.0321663
0.0361111
0.0361659
0.03247
0.0253345
0.0147517
0.00111379
-0.0141474
-0.0291906
-0.0429391
-0.055074
-0.0648227
-0.0704684
-0.0704675
-0.0648198
-0.0550697
-0.042934
-0.0291855
-0.0141431
0.00111669
0.014753
0.0253344
0.032469
0.0361648
0.0361103
0.032166
0.0251751
0.0165586
0.00773099
0.00044634
-0.00338324
-0.0030756
-4.02789e-05
0.00376973
0.00832163
0.0152155
0.0249393
0.0357838
0.0451244
0.0511134
0.0538411
0.0554758
0.0586643
0.0641984
0.0700439
0.0730849
0.0717808
0.066907
0.0606855
0.055618
0.0531831
0.0529289
0.0533617
0.0534257
0.0529
0.0521189
0.0515271
0.0509963
0.0494231
0.0451985
0.0370159
0.0245067
0.0085995
0.00972319
0.0275663
0.041188
0.049423
0.0527275
0.0527466
0.0515239
0.0505041
0.0499406
0.0493297
0.0482278
0.0468709
0.0465779
0.0492492
0.0555181
0.0635788
0.0702052
0.072465
0.0693549
0.0628879
0.0570313
0.0543261
0.0536898
0.0516581
0.0454389
0.0350167
0.0229332
0.0125883
0.00594958
0.00209401
-0.00119739
-0.00398317
-0.00381668
0.00116342
0.0101819
0.0208112
0.0307924
0.0384538
0.0423383
0.0416992
0.036761
0.0277535
0.0144852
-0.00264533
-0.0218369
-0.040707
-0.057806
-0.0726861
-0.0844776
-0.0912504
-0.0912493
-0.0844744
-0.0726812
-0.0578003
-0.0407014
-0.0218323
-0.00264219
0.0144866
0.0277532
0.0367598
0.0416976
0.042337
0.0384531
0.0307925
0.0208119
0.0101831
0.00116486
-0.00381522
-0.00398188
-0.00119647
0.00209434
0.00594928
0.0125876
0.0229324
0.0350157
0.0454378
0.0516568
0.053688
0.0543241
0.0570294
0.0628864
0.0693538
0.0724639
0.0702039
0.0635773
0.0555166
0.0492481
0.0465772
0.0468706
0.0482275
0.0493294
0.0499404
0.050504
0.0515239
0.0527467
0.0527276
0.0494231
0.0411881
0.0275665
0.00972325
0.0104108
0.0293641
0.0433688
0.0509962
0.0527466
0.0505996
0.0470481
0.0438741
0.0414367
0.0391628
0.0365237
0.0338285
0.0326798
0.0353136
0.0424631
0.0520063
0.0600832
0.0631818
0.0601585
0.0534256
0.0475787
0.0455215
0.0459717
0.0448779
0.0389852
0.0283193
0.0159422
0.00584675
0.000191829
-0.00228534
-0.00430008
-0.00608985
-0.00498059
0.00116455
0.0115261
0.0233343
0.0339838
0.041662
0.0449915
0.0433937
0.0371628
0.026411
0.0107576
-0.00940764
-0.0319734
-0.0540832
-0.0739365
-0.0909551
-0.10424
-0.1118
-0.111799
-0.104237
-0.0909503
-0.073931
-0.0540779
-0.0319691
-0.00940477
0.0107589
0.0264106
0.0371613
0.0433916
0.0449896
0.0416607
0.0339832
0.0233343
0.0115266
0.00116523
-0.00497979
-0.00608899
-0.00429935
-0.0022851
0.000191346
0.00584567
0.0159409
0.0283181
0.0389841
0.0448768
0.0459704
0.0455198
0.047577
0.0534242
0.0601577
0.0631811
0.0600825
0.0520052
0.0424619
0.0353127
0.0326793
0.0338284
0.0365237
0.0391627
0.0414364
0.0438739
0.047048
0.0505996
0.0527467
0.0509963
0.0433688
0.0293641
0.0104108
0.0109291
0.0306651
0.0447572
0.0515271
0.0515239
0.0470481
0.0409994
0.0354428
0.0308174
0.0265009
0.0219449
0.0176086
0.0153695
0.017665
0.025208
0.0356047
0.04454
0.0481136
0.0451103
0.0381847
0.0322738
0.0305178
0.0316215
0.0312809
0.0259798
0.0157004
0.00374867
-0.00554106
-0.00985751
-0.0105974
-0.0107532
-0.0108276
-0.00827334
-0.000946444
0.0103201
0.0226454
0.0333069
0.040491
0.0429734
0.0403526
0.0329516
0.0207587
0.00324853
-0.0191924
-0.0442293
-0.0686515
-0.0903728
-0.108703
-0.122786
-0.130721
-0.13072
-0.122783
-0.108699
-0.0903682
-0.0686473
-0.0442261
-0.0191904
0.00324923
0.020758
0.0329497
0.0403501
0.0429709
0.0404888
0.0333053
0.0226444
0.0103196
-0.000946556
-0.00827322
-0.0108273
-0.0107529
-0.0105973
-0.00985797
-0.00554204
0.00374744
0.0156992
0.0259787
0.0312801
0.0316207
0.0305168
0.0322728
0.0381838
0.0451098
0.0481133
0.0445397
0.0356043
0.0252074
0.0176645
0.0153692
0.0176086
0.021945
0.026501
0.0308174
0.0354427
0.0409992
0.047048
0.0515239
0.0515271
0.0447572
0.030665
0.0109291
0.0114479
0.0319616
0.0461453
0.0521189
0.0505041
0.0438741
0.0354428
0.0274971
0.0205652
0.0140301
0.00738439
0.00126942
-0.00221705
-0.000573398
0.00681294
0.0173653
0.0264977
0.0300724
0.0268196
0.0194749
0.0130847
0.0109645
0.0120108
0.0119692
0.0072264
-0.00235826
-0.0134801
-0.0216948
-0.0245796
-0.0234693
-0.0214144
-0.0192437
-0.0148592
-0.00636343
0.00542228
0.0177242
0.0279226
0.0343315
0.0359269
0.0324652
0.024258
0.0111941
-0.00731704
-0.0308808
-0.05706
-0.0824645
-0.104837
-0.123422
-0.137473
-0.145312
-0.145311
-0.137471
-0.123419
-0.104834
-0.0824621
-0.0570585
-0.0308801
-0.00731729
0.0111928
0.0242557
0.0324623
0.0359238
0.0343285
0.02792
0.0177222
0.00542098
-0.00636419
-0.0148597
-0.0192439
-0.0214144
-0.0234694
-0.0245798
-0.0216953
-0.0134807
-0.00235913
0.00722551
0.0119685
0.0120105
0.0109644
0.0130847
0.0194748
0.0268194
0.0300723
0.0264976
0.0173653
0.006813
-0.000573435
-0.00221715
0.00126939
0.0073845
0.0140303
0.0205654
0.0274971
0.0354427
0.0438739
0.050504
0.0521189
0.0461453
0.0319616
0.0114479
0.0119493
0.033226
0.0475557
0.0529001
0.0499406
0.0414367
0.0308174
0.0205652
0.011359
0.0026596
-0.00598699
-0.0138165
-0.0186107
-0.0178823
-0.0110939
-0.000882869
0.00800561
0.01123
0.00742418
-0.000697058
-0.00807711
-0.0112019
-0.0108273
-0.010998
-0.015367
-0.0242516
-0.0344646
-0.0415701
-0.0430664
-0.0401223
-0.0357197
-0.0310644
-0.0247183
-0.0151739
-0.0031867
0.00874498
0.0182538
0.0238625
0.0247719
0.0208762
0.0124577
-0.00063743
-0.0189632
-0.0421088
-0.0676865
-0.0923519
-0.113843
-0.131418
-0.144503
-0.151741
-0.151741
-0.144503
-0.131417
-0.113843
-0.0923519
-0.0676871
-0.0421099
-0.0189647
-0.000639489
0.012455
0.020873
0.0247684
0.023859
0.0182505
0.00874224
-0.00318861
-0.0151751
-0.024719
-0.0310649
-0.03572
-0.0401223
-0.0430662
-0.0415698
-0.0344644
-0.0242519
-0.0153676
-0.0109985
-0.0108272
-0.0112013
-0.00807628
-0.000696485
0.00742432
0.0112299
0.00800555
-0.000882622
-0.0110934
-0.0178819
-0.0186106
-0.0138165
-0.00598695
0.00265982
0.0113593
0.0205654
0.0308174
0.0414364
0.0499404
0.0528999
0.0475556
0.033226
0.0119493
0.0123245
0.0341714
0.0485999
0.053426
0.0493297
0.0391628
0.0265009
0.0140301
0.0026596
-0.00800319
-0.0183844
-0.0277099
-0.0337505
-0.0340458
-0.0280396
-0.018323
-0.00977558
-0.00699102
-0.0114847
-0.0205953
-0.0292572
-0.0337078
-0.0342841
-0.0347946
-0.0389491
-0.047246
-0.0566072
-0.0626282
-0.0627721
-0.0580431
-0.0513292
-0.0442407
-0.0360705
-0.0257136
-0.0137822
-0.00240243
0.0063739
0.0113191
0.0118858
0.00810838
0.000247199
-0.0118272
-0.0285398
-0.0494687
-0.0724413
-0.0944034
-0.113286
-0.128466
-0.139609
-0.145734
-0.145734
-0.13961
-0.128467
-0.113288
-0.094406
-0.0724442
-0.0494717
-0.0285428
-0.01183
0.000244267
0.00810528
0.0118825
0.0113155
0.00637031
-0.00240554
-0.0137844
-0.0257149
-0.0360712
-0.0442412
-0.0513295
-0.0580429
-0.0627714
-0.0626272
-0.0566063
-0.0472456
-0.0389492
-0.0347948
-0.0342839
-0.033707
-0.0292561
-0.0205944
-0.0114844
-0.00699109
-0.00977575
-0.018323
-0.0280392
-0.0340453
-0.0337502
-0.0277098
-0.0183843
-0.00800306
0.00265982
0.0140303
0.026501
0.0391627
0.0493294
0.0534257
0.0485997
0.0341713
0.0123245
0.0125188
0.0346448
0.0490393
0.0533622
0.0482278
0.0365237
0.0219449
0.00738439
-0.00598699
-0.0183844
-0.0302154
-0.0407543
-0.0478161
-0.0489666
-0.0435903
-0.0342131
-0.0258653
-0.0234017
-0.0284637
-0.0384225
-0.0482189
-0.053881
-0.0553619
-0.0562411
-0.0602448
-0.0679687
-0.0763933
-0.0811983
-0.0799269
-0.0734954
-0.0646998
-0.0555097
-0.0458851
-0.0350485
-0.0234062
-0.0126968
-0.00466241
-0.000255138
0.000281948
-0.00283903
-0.00934852
-0.0192953
-0.0329193
-0.0498187
-0.0681992
-0.0855266
-0.100117
-0.111581
-0.119878
-0.124432
-0.124433
-0.119881
-0.111585
-0.100122
-0.0855316
-0.0682043
-0.0498235
-0.0329234
-0.0192987
-0.00935149
-0.00284177
0.000279155
-0.000258195
-0.00466562
-0.0126997
-0.0234083
-0.0350496
-0.0458857
-0.05551
-0.0646999
-0.073495
-0.0799259
-0.0811969
-0.076392
-0.0679678
-0.0602445
-0.056241
-0.0553617
-0.0538804
-0.048218
-0.0384216
-0.0284632
-0.0234017
-0.0258655
-0.0342132
-0.0435902
-0.0489663
-0.0478157
-0.040754
-0.0302152
-0.0183843
-0.00598695
0.0073845
0.021945
0.0365237
0.0482275
0.0533617
0.0490389
0.0346445
0.0125187
0.0125953
0.0348109
0.0490866
0.0529295
0.0468709
0.0338285
0.0176086
0.00126942
-0.0138165
-0.0277099
-0.0407543
-0.0522074
-0.0599085
-0.0614981
-0.0563945
-0.0471354
-0.0388828
-0.0366267
-0.0419932
-0.0523464
-0.0627392
-0.069176
-0.0713484
-0.0725614
-0.0763873
-0.0833582
-0.09051
-0.0937703
-0.0909585
-0.0829942
-0.0725454
-0.0618178
-0.0512919
-0.0404102
-0.0293397
-0.0194637
-0.0122561
-0.00838282
-0.00773218
-0.00986296
-0.014442
-0.0213768
-0.0306894
-0.0420483
-0.05419
-0.0653015
-0.0742504
-0.0809789
-0.0857695
-0.0884307
-0.0884321
-0.0857734
-0.0809847
-0.0742571
-0.0653085
-0.0541967
-0.0420543
-0.0306943
-0.0213805
-0.0144448
-0.00986505
-0.00773406
-0.00838482
-0.0122583
-0.0194657
-0.0293412
-0.0404111
-0.0512924
-0.0618181
-0.0725453
-0.0829936
-0.0909574
-0.0937689
-0.0905088
-0.0833573
-0.0763867
-0.072561
-0.0713481
-0.0691757
-0.0627388
-0.052346
-0.0419929
-0.0366265
-0.0388828
-0.0471355
-0.0563946
-0.061498
-0.0599081
-0.0522069
-0.040754
-0.0277098
-0.0138165
0.0012694
0.0176086
0.0338284
0.0468706
0.0529289
0.0490859
0.0348103
0.012595
0.0127425
0.0352008
0.0495499
0.0531839
0.0465779
0.0326798
0.0153695
-0.00221705
-0.0186107
-0.0337505
-0.0478161
-0.0599085
-0.0678571
-0.0694926
-0.0644421
-0.0553375
-0.0473584
-0.045388
-0.0508536
-0.0611199
-0.0715413
-0.0783463
-0.0810783
-0.0826453
-0.0862218
-0.0921314
-0.0975529
-0.0989067
-0.0944876
-0.085255
-0.0736631
-0.0620102
-0.0511627
-0.0407117
-0.0305754
-0.0218021
-0.0156158
-0.0123951
-0.0116667
-0.0127448
-0.0151794
-0.0186645
-0.0229716
-0.0278837
-0.0327898
-0.03675
-0.0393016
-0.040779
-0.0417758
-0.042426
-0.0424278
-0.0417806
-0.040786
-0.0393096
-0.0367581
-0.0327974
-0.0278902
-0.0229767
-0.0186681
-0.0151816
-0.012746
-0.0116674
-0.0123957
-0.0156166
-0.021803
-0.0305762
-0.0407124
-0.0511633
-0.0620106
-0.0736629
-0.0852542
-0.0944864
-0.0989056
-0.0975521
-0.0921307
-0.0862211
-0.0826444
-0.0810775
-0.0783458
-0.0715412
-0.06112
-0.0508535
-0.0453876
-0.0473579
-0.0553371
-0.0644419
-0.0694925
-0.0678569
-0.0599081
-0.0478157
-0.0337502
-0.0186106
-0.00221714
0.0153692
0.0326793
0.0465772
0.0531831
0.049549
0.0352001
0.0127422
0.013185
0.0364744
0.0515063
0.0556192
0.0492492
0.0353136
0.017665
-0.000573398
-0.0178823
-0.0340458
-0.0489666
-0.0614981
-0.0694926
-0.0711132
-0.0663301
-0.057859
-0.0506881
-0.0493289
-0.0549073
-0.064901
-0.0751762
-0.0823512
-0.0858218
-0.087911
-0.0911804
-0.0956973
-0.098964
-0.0981536
-0.0921698
-0.0819645
-0.0696513
-0.0575029
-0.0467125
-0.0370402
-0.0281872
-0.0208466
-0.01594
-0.0135372
-0.0128437
-0.0129808
-0.0133699
-0.013437
-0.0126757
-0.0110074
-0.00853464
-0.00525748
-0.00141994
0.00225214
0.00490407
0.00616236
0.00616053
0.00489898
0.00224483
-0.00142825
-0.00526578
-0.00854223
-0.0110138
-0.0126805
-0.0134401
-0.0133715
-0.0129813
-0.0128434
-0.0135366
-0.0159394
-0.0208463
-0.0281873
-0.0370408
-0.0467133
-0.0575035
-0.0696513
-0.0819637
-0.0921687
-0.0981529
-0.0989637
-0.095697
-0.0911796
-0.0879097
-0.0858203
-0.0823501
-0.0751759
-0.0649012
-0.0549074
-0.0493284
-0.050687
-0.0578579
-0.0663293
-0.0711128
-0.0694925
-0.061498
-0.0489663
-0.0340453
-0.0178819
-0.000573425
0.0176645
0.0353127
0.049248
0.055618
0.0515053
0.0364737
0.0131848
0.0139519
0.0387459
0.0552156
0.0606869
0.0555181
0.0424631
0.025208
0.00681294
-0.0110939
-0.0280396
-0.0435903
-0.0563945
-0.0644421
-0.0663301
-0.062395
-0.05533
-0.0497006
-0.0494481
-0.0554077
-0.0653467
-0.0757953
-0.0837892
-0.0884707
-0.0913835
-0.0943385
-0.0971956
-0.0980005
-0.0949039
-0.0874857
-0.0765957
-0.0638662
-0.0514376
-0.0408189
-0.0320343
-0.0246568
-0.0189921
-0.0155545
-0.0140583
-0.0134571
-0.0127895
-0.0113926
-0.00841486
-0.00306975
0.00457795
0.0137227
0.0234615
0.0329079
0.0410183
0.0467637
0.049625
0.0496233
0.046759
0.0410115
0.0329002
0.0234538
0.0137158
0.00457224
-0.00307389
-0.0084173
-0.0113936
-0.0127893
-0.0134562
-0.0140569
-0.015553
-0.0189909
-0.0246563
-0.0320348
-0.0408199
-0.0514385
-0.0638665
-0.0765953
-0.0874849
-0.0949034
-0.0980004
-0.0971955
-0.0943378
-0.0913819
-0.0884686
-0.0837875
-0.0757944
-0.0653467
-0.0554078
-0.0494477
-0.0496994
-0.0553284
-0.0623936
-0.0663293
-0.0644419
-0.0563946
-0.0435902
-0.0280392
-0.0110934
0.00681301
0.0252074
0.0424619
0.0555166
0.0606855
0.0552144
0.0387452
0.0139516
0.0147792
0.041269
0.0595375
0.0669085
0.0635788
0.0520063
0.0356047
0.0173653
-0.000882869
-0.018323
-0.0342131
-0.0471354
-0.0553375
-0.057859
-0.05533
-0.0503119
-0.0468109
-0.0481136
-0.0548179
-0.0650877
-0.0761464
-0.0854006
-0.0916586
-0.0955856
-0.0981937
-0.0992099
-0.0973833
-0.091971
-0.0832515
-0.0719113
-0.0590038
-0.0464278
-0.0359628
-0.027984
-0.0220512
-0.0180807
-0.016088
-0.0153967
-0.0147955
-0.0133735
-0.0104648
-0.00497796
0.00412013
0.0166248
0.0311011
0.0458736
0.0595674
0.0709579
0.0789546
0.082978
0.0829767
0.0789509
0.0709524
0.0595611
0.0458673
0.0310953
0.01662
0.0041167
-0.0049799
-0.0104655
-0.0133731
-0.0147944
-0.0153951
-0.016086
-0.0180788
-0.0220502
-0.0279841
-0.0359637
-0.0464289
-0.0590045
-0.0719112
-0.0832509
-0.0919705
-0.0973832
-0.0992099
-0.0981931
-0.0955839
-0.0916563
-0.0853984
-0.076145
-0.0650873
-0.0548179
-0.0481135
-0.04681
-0.0503104
-0.0553284
-0.0578579
-0.0553371
-0.0471355
-0.0342132
-0.0183229
-0.000882611
0.0173653
0.0356043
0.0520052
0.0635773
0.066907
0.0595362
0.0412682
0.0147789
0.0153063
0.0429718
0.0626954
0.0717824
0.0702052
0.0600832
0.04454
0.0264977
0.00800561
-0.00977558
-0.0258653
-0.0388828
-0.0473584
-0.0506881
-0.0497006
-0.0468109
-0.0455006
-0.0484395
-0.0559972
-0.0666769
-0.0782991
-0.0886203
-0.0961835
-0.100842
-0.102846
-0.101828
-0.0972599
-0.0894884
-0.0794819
-0.067792
-0.054894
-0.0423414
-0.0320624
-0.0247881
-0.0201576
-0.0177297
-0.016981
-0.0168386
-0.0160113
-0.013762
-0.00952241
-0.00205116
0.00985428
0.0258557
0.0440141
0.0620816
0.0784028
0.0917394
0.101052
0.105761
0.10576
0.101049
0.0917357
0.0783983
0.0620768
0.0440095
0.0258518
0.00985138
-0.00205289
-0.00952307
-0.0137618
-0.0160105
-0.0168371
-0.0169789
-0.0177275
-0.020156
-0.0247876
-0.0320629
-0.0423423
-0.0548946
-0.067792
-0.0794815
-0.089488
-0.0972599
-0.101828
-0.102846
-0.10084
-0.0961815
-0.0886183
-0.0782977
-0.0666764
-0.0559973
-0.0484397
-0.0455004
-0.04681
-0.0496994
-0.050687
-0.0473579
-0.0388828
-0.0258655
-0.00977574
0.00800557
0.0264976
0.0445397
0.0600825
0.0702039
0.0717808
0.062694
0.0429708
0.015306
0.0152677
0.0430182
0.063195
0.0730862
0.072465
0.0631818
0.0481136
0.0300724
0.01123
-0.00699102
-0.0234017
-0.0366267
-0.045388
-0.0493289
-0.0494481
-0.0481136
-0.0484395
-0.0525652
-0.0605681
-0.071106
-0.0824517
-0.0927703
-0.10056
-0.105062
-0.105855
-0.102458
-0.0949695
-0.0847079
-0.0733156
-0.0613165
-0.0486822
-0.0365169
-0.0267033
-0.020244
-0.0169086
-0.0159527
-0.0163162
-0.0165335
-0.01528
-0.0120715
-0.00655134
0.00251381
0.0163574
0.0345059
0.054683
0.0743188
0.0917086
0.10576
0.115563
0.120554
0.120553
0.115562
0.105758
0.0917059
0.0743157
0.0546797
0.0345027
0.0163548
0.00251202
-0.00655232
-0.0120718
-0.0152798
-0.0165325
-0.0163144
-0.0159504
-0.0169065
-0.0202427
-0.0267027
-0.0365168
-0.0486822
-0.0613164
-0.0733155
-0.0847079
-0.0949698
-0.102459
-0.105855
-0.105061
-0.100559
-0.0927693
-0.0824511
-0.071106
-0.0605685
-0.0525657
-0.0484397
-0.0481135
-0.0494477
-0.0493284
-0.0453876
-0.0366265
-0.0234017
-0.00699108
0.0112299
0.0300723
0.0481133
0.0631811
0.0724639
0.0730848
0.0631936
0.0430171
0.0152673
0.0146019
0.0411755
0.0605457
0.0700452
0.0693549
0.0601585
0.0451103
0.0268196
0.00742418
-0.0114847
-0.0284637
-0.0419932
-0.0508536
-0.0549073
-0.0554077
-0.0548179
-0.0559972
-0.0605681
-0.0681953
-0.0775006
-0.0871182
-0.0957627
-0.102176
-0.105224
-0.103892
-0.0975495
-0.0868029
-0.0738379
-0.0609842
-0.0488688
-0.0370271
-0.025973
-0.0172946
-0.0121216
-0.0103742
-0.0110809
-0.0126882
-0.0133438
-0.0116806
-0.00747878
-0.000698614
0.00967444
0.0247151
0.0438046
0.0645196
0.0842364
0.101416
0.115232
0.124934
0.129932
0.129933
0.124934
0.115232
0.101415
0.0842347
0.0645174
0.0438021
0.0247127
0.00967244
-0.000700065
-0.00747972
-0.0116809
-0.0133433
-0.0126866
-0.0110786
-0.0103717
-0.0121194
-0.0172929
-0.0259718
-0.0370262
-0.0488684
-0.0609843
-0.0738386
-0.0868038
-0.0975501
-0.103892
-0.105223
-0.102176
-0.0957629
-0.0871189
-0.0775015
-0.068196
-0.0605685
-0.0559973
-0.054818
-0.0554078
-0.0549074
-0.0508534
-0.0419929
-0.0284632
-0.0114843
0.00742433
0.0268194
0.0451098
0.0601577
0.0693538
0.0700439
0.0605445
0.0411746
0.0146016
0.0135302
0.0380969
0.0558298
0.0641998
0.0628879
0.0534256
0.0381847
0.0194749
-0.000697058
-0.0205953
-0.0384225
-0.0523464
-0.0611199
-0.064901
-0.0653467
-0.0650877
-0.0666769
-0.071106
-0.0775006
-0.08435
-0.0906688
-0.0959099
-0.0993302
-0.09961
-0.0951991
-0.0852799
-0.0708988
-0.0550594
-0.0408196
-0.0290196
-0.0187772
-0.00983898
-0.00323346
-5.36747e-05
-0.000373863
-0.00309144
-0.00625412
-0.00765869
-0.00585602
-0.000838587
0.00705261
0.0184089
0.0339595
0.0529409
0.0729737
0.0916194
0.107661
0.120598
0.129824
0.134669
0.13467
0.129825
0.120599
0.107662
0.0916192
0.0729726
0.052939
0.0339574
0.0184067
0.00705071
-0.000840104
-0.00585696
-0.00765873
-0.00625304
-0.00308941
-0.000371362
-5.11197e-05
-0.00323101
-0.00983675
-0.0187755
-0.0290188
-0.04082
-0.0550608
-0.0709005
-0.0852812
-0.0951998
-0.0996103
-0.0993308
-0.0959112
-0.0906705
-0.0843516
-0.0775015
-0.071106
-0.0666764
-0.0650873
-0.0653467
-0.0649012
-0.06112
-0.052346
-0.0384216
-0.0205943
-0.00069647
0.0194748
0.0381838
0.0534242
0.0628864
0.0641984
0.0558287
0.0380961
0.01353
0.0124595
0.0350377
0.0512204
0.058666
0.0570313
0.0475787
0.0322738
0.0130847
-0.00807711
-0.0292572
-0.0482189
-0.0627392
-0.0715413
-0.0751762
-0.0757953
-0.0761464
-0.0782991
-0.0824517
-0.0871182
-0.0906688
-0.0925894
-0.0932358
-0.0925638
-0.0892075
-0.0811397
-0.0673509
-0.0492761
-0.03068
-0.0153564
-0.00442214
0.00342785
0.00935891
0.0130984
0.0137193
0.0110027
0.00608909
0.00119624
-0.00120729
0.000428161
0.00597014
0.014677
0.0265705
0.0419125
0.0598369
0.0781907
0.0948982
0.109139
0.120739
0.129219
0.133788
0.133788
0.129221
0.120741
0.109141
0.0948993
0.0781909
0.059836
0.0419109
0.0265684
0.0146748
0.00596811
0.0004266
-0.00120802
0.00119655
0.0060903
0.0110045
0.0137215
0.0131009
0.00936151
0.00343008
-0.00442101
-0.0153568
-0.0306816
-0.0492783
-0.0673527
-0.0811407
-0.0892081
-0.0925646
-0.0932373
-0.0925914
-0.0906705
-0.0871189
-0.0824511
-0.0782977
-0.076145
-0.0757944
-0.0751759
-0.0715412
-0.0627388
-0.048218
-0.0292561
-0.00807626
0.0130847
0.0322728
0.047577
0.0570294
0.0586643
0.0512192
0.035037
0.0124593
0.011643
0.0328018
0.0481406
0.0554777
0.0543261
0.0455215
0.0305178
0.0109645
-0.0112019
-0.0337078
-0.053881
-0.069176
-0.0783463
-0.0823512
-0.0837892
-0.0854006
-0.0886203
-0.0927703
-0.0957627
-0.0959099
-0.0932358
-0.0890483
-0.0840586
-0.0769616
-0.0653751
-0.0481398
-0.0269937
-0.00631354
0.00946754
0.0189677
0.0239163
0.0264343
0.0270628
0.0250878
0.020157
0.0133783
0.0070901
0.00389231
0.00539285
0.0113511
0.0206144
0.0325545
0.0469388
0.0629077
0.0787155
0.0927703
0.104656
0.114494
0.121927
0.126062
0.126063
0.12193
0.114497
0.104659
0.0927731
0.0787172
0.0629082
0.0469382
0.0325529
0.0206121
0.0113486
0.00539052
0.00389056
0.00708909
0.0133779
0.0201572
0.0250887
0.0270645
0.0264366
0.0239186
0.0189692
0.00946755
-0.0063149
-0.0269956
-0.0481415
-0.065376
-0.076962
-0.0840591
-0.0890493
-0.0932373
-0.0959112
-0.0957629
-0.0927693
-0.0886183
-0.0853984
-0.0837875
-0.0823501
-0.0783458
-0.0691757
-0.0538804
-0.033707
-0.0112013
0.0109645
0.0305168
0.0455198
0.0543241
0.0554758
0.0481392
0.032801
0.0116427
0.0109812
0.031091
0.0460716
0.053843
0.0536898
0.0459717
0.0316215
0.0120108
-0.0108273
-0.0342841
-0.0553619
-0.0713484
-0.0810783
-0.0858218
-0.0884707
-0.0916586
-0.0961835
-0.10056
-0.102176
-0.0993302
-0.0925638
-0.0840586
-0.0752399
-0.0649707
-0.0507054
-0.0312094
-0.00838203
0.0130558
0.0282656
0.0357054
0.0375265
0.0367462
0.034646
0.0306954
0.0244089
0.016799
0.0101649
0.00705187
0.00900599
0.0156432
0.0253823
0.0369344
0.0496467
0.0628397
0.0753481
0.0861307
0.0951331
0.102733
0.108728
0.112198
0.112199
0.10873
0.102737
0.0951375
0.0861349
0.0753515
0.0628418
0.0496473
0.0369335
0.02538
0.0156402
0.00900275
0.00704879
0.0101622
0.0167967
0.024407
0.0306944
0.0346463
0.0367477
0.0375287
0.0357072
0.0282664
0.0130555
-0.00838282
-0.03121
-0.0507055
-0.0649705
-0.0752398
-0.0840591
-0.0925646
-0.0993308
-0.102176
-0.100559
-0.0961815
-0.0916563
-0.0884686
-0.0858203
-0.0810775
-0.0713481
-0.0553617
-0.0342838
-0.0108272
0.0120105
0.0316207
0.0459704
0.053688
0.0538411
0.04607
0.03109
0.0109808
0.0101672
0.028928
0.0432423
0.0511149
0.0516581
0.0448779
0.0312809
0.0119692
-0.010998
-0.0347946
-0.0562411
-0.0725614
-0.0826453
-0.087911
-0.0913835
-0.0955856
-0.100842
-0.105062
-0.105224
-0.09961
-0.0892075
-0.0769616
-0.0649707
-0.0523965
-0.0367334
-0.0167183
0.00580572
0.0261498
0.0394137
0.0440667
0.0426632
0.0389806
0.0349
0.0300202
0.0237205
0.0168417
0.0114477
0.00979088
0.0131754
0.0209978
0.0312527
0.0420676
0.0525382
0.0623684
0.0710967
0.0782198
0.0839501
0.0888738
0.0930098
0.0955534
0.0955544
0.0930127
0.0888782
0.0839554
0.0782252
0.0711016
0.062372
0.0525401
0.0420675
0.0312507
0.0209944
0.0131714
0.00978652
0.0114432
0.0168374
0.0237167
0.0300175
0.0348989
0.0389812
0.0426649
0.0440687
0.0394155
0.0261511
0.00580678
-0.0167172
-0.0367324
-0.0523958
-0.0649705
-0.076962
-0.0892081
-0.0996103
-0.105223
-0.105061
-0.10084
-0.0955839
-0.0913819
-0.0879097
-0.0826444
-0.072561
-0.056241
-0.0347948
-0.0109985
0.0119685
0.0312801
0.0448768
0.0516567
0.0511134
0.0432409
0.028927
0.0101668
0.00895376
0.0255105
0.0381858
0.0451254
0.0454389
0.0389852
0.0259798
0.0072264
-0.015367
-0.0389491
-0.0602448
-0.0763873
-0.0862218
-0.0911804
-0.0943385
-0.0981937
-0.102846
-0.105855
-0.103892
-0.0951991
-0.0811397
-0.0653751
-0.0507054
-0.0367334
-0.0211413
-0.00259431
0.0174183
0.0346707
0.0445747
0.0457713
0.0411379
0.0350046
0.0296891
0.024893
0.0198886
0.0152723
0.0126628
0.0137699
0.0194769
0.0289042
0.0396852
0.0495267
0.0574911
0.063834
0.0688251
0.0723887
0.0748528
0.0769464
0.0789826
0.0804191
0.08042
0.0789853
0.0769507
0.0748583
0.0723947
0.0688309
0.0638387
0.0574939
0.0495274
0.0396837
0.028901
0.0194726
0.0137649
0.0126572
0.0152666
0.0198834
0.0248891
0.029687
0.0350044
0.0411391
0.0457733
0.0445771
0.0346735
0.0174211
-0.00259159
-0.0211392
-0.0367324
-0.0507055
-0.065376
-0.0811407
-0.0951998
-0.103892
-0.105855
-0.102846
-0.0981931
-0.0943378
-0.0911796
-0.0862211
-0.0763866
-0.0602445
-0.0389492
-0.0153676
0.00722552
0.0259787
0.0389841
0.0454378
0.0451244
0.0381849
0.0255099
0.00895354
0.00731243
0.0207516
0.030781
0.0357843
0.0350167
0.0283193
0.0157004
-0.00235826
-0.0242516
-0.047246
-0.0679687
-0.0833582
-0.0921314
-0.0956973
-0.0971956
-0.0992099
-0.101828
-0.102458
-0.0975495
-0.0852799
-0.0673509
-0.0481398
-0.0312094
-0.0167183
-0.00259431
0.0126954
0.0283258
0.0409128
0.0464797
0.0439229
0.036271
0.0281221
0.022054
0.0178914
0.0148878
0.0133707
0.0143532
0.0188191
0.0271256
0.0381321
0.0492456
0.0579706
0.0635404
0.0668402
0.0687803
0.069517
0.0693025
0.0689148
0.0689888
0.0693439
0.0693446
0.0689911
0.0689185
0.0693075
0.0695227
0.0687861
0.0668453
0.063544
0.0579721
0.0492451
0.0381298
0.027122
0.0188144
0.0143476
0.0133647
0.0148821
0.017887
0.0220512
0.028121
0.0362714
0.0439243
0.0464821
0.040916
0.0283296
0.012699
-0.00259159
-0.0167172
-0.03121
-0.0481415
-0.0673527
-0.0852812
-0.0975501
-0.102459
-0.101828
-0.0992099
-0.0971955
-0.095697
-0.0921307
-0.0833573
-0.0679678
-0.0472456
-0.0242519
-0.00235912
0.0156992
0.0283181
0.0350157
0.0357838
0.0307808
0.0207516
0.00731242
0.00541846
0.0152406
0.0221809
0.0249395
0.0229332
0.0159422
0.00374867
-0.0134801
-0.0344646
-0.0566072
-0.0763933
-0.09051
-0.0975529
-0.098964
-0.0980005
-0.0973833
-0.0972599
-0.0949695
-0.0868029
-0.0708988
-0.0492761
-0.0269937
-0.00838203
0.00580572
0.0174183
0.0283258
0.0385795
0.0458524
0.0469404
0.0409864
0.0309309
0.0213033
0.0147538
0.0112777
0.0102407
0.0117349
0.0160915
0.0234921
0.0337747
0.0456549
0.0565338
0.0639642
0.067502
0.0686228
0.0686794
0.0678174
0.0660191
0.0639982
0.0626671
0.0622101
0.0622106
0.0626686
0.0640009
0.0660228
0.0678221
0.0686846
0.0686278
0.0675061
0.0639668
0.0565347
0.0456543
0.0337727
0.0234888
0.0160869
0.0117296
0.0102354
0.0112732
0.0147505
0.0213012
0.0309298
0.0409864
0.0469415
0.0458549
0.0385831
0.0283296
0.0174211
0.00580678
-0.00838282
-0.0269956
-0.0492783
-0.0709005
-0.0868038
-0.0949698
-0.0972599
-0.0973833
-0.0980004
-0.0989637
-0.0975521
-0.0905088
-0.076392
-0.0566063
-0.0344644
-0.0134807
0.00374744
0.0159409
0.0229324
0.0249393
0.0221812
0.0152409
0.00541862
0.00358107
0.0099652
0.0141662
0.0152157
0.0125883
0.00584675
-0.00554106
-0.0216948
-0.0415701
-0.0626282
-0.0811983
-0.0937703
-0.0989067
-0.0981536
-0.0949039
-0.091971
-0.0894884
-0.0847079
-0.0738379
-0.0550594
-0.03068
-0.00631354
0.0130558
0.0261498
0.0346707
0.0409128
0.0458524
0.0482439
0.0456735
0.0374581
0.0261953
0.0160089
0.00942598
0.00664105
0.00724661
0.0111486
0.017985
0.027152
0.0380758
0.049545
0.059254
0.0650704
0.0669557
0.0668297
0.0662253
0.065053
0.0628925
0.0602974
0.0583535
0.0575105
0.0575107
0.0583542
0.0602988
0.0628949
0.0650563
0.0662295
0.0668342
0.06696
0.0650741
0.0592568
0.0495466
0.0380761
0.0271508
0.0179822
0.0111446
0.00724204
0.00663662
0.00942202
0.0160054
0.0261923
0.0374559
0.0456726
0.0482448
0.0458549
0.040916
0.0346735
0.0261511
0.0130555
-0.0063149
-0.0306816
-0.0550608
-0.0738386
-0.0847079
-0.0894881
-0.0919706
-0.0949034
-0.0981529
-0.0989056
-0.0937689
-0.0811969
-0.0626272
-0.0415698
-0.0216953
-0.00554204
0.00584567
0.0125875
0.0152155
0.0141665
0.0099656
0.00358125
0.00208135