/*--------------------------------*- C++ -*----------------------------------*\
  =========                 |
  \\      /  F ield         | OpenFOAM: The Open Source CFD Toolbox
   \\    /   O peration     | Website:  https://openfoam.org
    \\  /    A nd           | Version:  10
     \\/     M anipulation  |
\*---------------------------------------------------------------------------*/
FoamFile
{
    format      ascii;
    class       volScalarField;
    location    "39";
    object      h;
}
// * * * * * * * * * * * * * * * * * * * * * * * * * * * * * * * * * * * * * //

dimensions      [0 1 0 0 0 0 0];

internalField   nonuniform List<scalar> 
10000
(
-6.09032e-05
-4.98762e-05
-4.41089e-05
-1.73132e-05
7.63431e-05
-7.77781e-05
-0.000143869
-0.000138507
-0.00031749
-0.000400359
-0.000630264
-0.0011083
-0.00162324
-0.00237991
-0.00329823
-0.00398247
-0.00445448
-0.00452064
-0.00357152
-0.00168153
0.00104298
0.00414748
0.00676265
0.00822386
0.00800185
0.00644939
0.00425418
0.002599
0.0018166
0.00148589
0.000767435
-0.00127793
-0.00418231
-0.00648185
-0.00624614
-0.00349404
0.000109913
0.00204816
0.00139958
-0.000830412
-0.002736
-0.00315266
-0.00217118
-0.000734405
-0.000103406
-0.00074157
-0.00192536
-0.00232732
-0.00159651
-0.0006568
-0.000656814
-0.00159654
-0.00232733
-0.00192536
-0.000741568
-0.000103428
-0.000734445
-0.00217124
-0.00315273
-0.00273606
-0.000830394
0.00139967
0.00204826
0.000109908
-0.0034942
-0.00624635
-0.00648196
-0.00418217
-0.00127766
0.000767688
0.00148599
0.00181659
0.00259897
0.00425421
0.00644956
0.00800209
0.00822409
0.00676275
0.00414744
0.00104281
-0.00168177
-0.00357176
-0.00452083
-0.00445453
-0.00398247
-0.00329823
-0.00237983
-0.00162316
-0.00110825
-0.000630188
-0.000400331
-0.000317509
-0.000138487
-0.000143918
-7.77935e-05
7.64303e-05
-1.73095e-05
-4.41358e-05
-4.99175e-05
-6.09528e-05
-4.98762e-05
7.38999e-05
1.90494e-05
-0.000103136
1.43689e-05
-0.000224922
-0.000256034
-0.000304252
-0.000880501
-0.00127484
-0.00210193
-0.0035876
-0.00514343
-0.00727433
-0.00989171
-0.0119777
-0.0133105
-0.0131864
-0.0101567
-0.00447898
0.00352426
0.012576
0.0201542
0.0242223
0.0233824
0.0186074
0.0120469
0.00701488
0.00457688
0.00354074
0.00134345
-0.0045762
-0.0128745
-0.0192226
-0.0183394
-0.0101625
0.000471207
0.0063416
0.00465714
-0.00164127
-0.00702173
-0.00818747
-0.00541563
-0.00136379
0.000496087
-0.00123788
-0.00458079
-0.00578763
-0.00374846
-0.00107838
-0.0010784
-0.0037485
-0.00578761
-0.00458073
-0.00123781
0.000496099
-0.00136382
-0.00541569
-0.0081875
-0.0070217
-0.0016411
0.00465745
0.00634188
0.000471226
-0.0101628
-0.0183399
-0.0192229
-0.0128742
-0.00457562
0.00134393
0.00354077
0.00457661
0.00701455
0.0120468
0.0186077
0.023383
0.0242229
0.0201545
0.012576
0.00352399
-0.00447942
-0.0101572
-0.0131869
-0.0133107
-0.0119778
-0.00989174
-0.00727418
-0.00514331
-0.00358757
-0.00210177
-0.00127475
-0.00088051
-0.000304121
-0.000256038
-0.000224971
1.44332e-05
-0.000103188
1.90916e-05
7.39687e-05
-4.99153e-05
-4.41089e-05
1.90494e-05
-5.87586e-05
-0.000153385
-7.89089e-05
-0.00029019
-0.000359392
-0.000629678
-0.00144488
-0.00219383
-0.00363103
-0.00596226
-0.00864252
-0.012231
-0.0164455
-0.0199649
-0.0221839
-0.0217536
-0.0167933
-0.00746305
0.00562857
0.0203551
0.0327394
0.0393297
0.0381885
0.0306315
0.0202752
0.0119731
0.00763581
0.00547759
0.0012374
-0.00858045
-0.0217878
-0.0314523
-0.0301479
-0.0174937
-0.000983079
0.00837801
0.0059595
-0.0036149
-0.0117692
-0.0136176
-0.00964957
-0.00375002
-0.000801214
-0.00313034
-0.00802866
-0.00999421
-0.00706193
-0.00308244
-0.00308245
-0.00706194
-0.00999416
-0.00802858
-0.00313028
-0.000801245
-0.0037501
-0.00964963
-0.0136176
-0.0117691
-0.0036147
0.00595982
0.00837829
-0.000983128
-0.0174942
-0.0301486
-0.0314526
-0.0217875
-0.00857964
0.00123808
0.0054777
0.00763546
0.0119727
0.0202751
0.030632
0.0381894
0.0393307
0.03274
0.0203552
0.00562814
-0.00746373
-0.016794
-0.0217543
-0.0221843
-0.019965
-0.0164455
-0.0122308
-0.0086423
-0.00596215
-0.00363081
-0.00219369
-0.00144488
-0.000629541
-0.000359308
-0.000290189
-7.88656e-05
-0.000153445
-5.87669e-05
1.90878e-05
-4.41348e-05
-1.73132e-05
-0.000103136
-0.000153385
-6.78824e-05
-0.000151983
-0.000432192
-0.000676991
-0.00120812
-0.00205176
-0.00320676
-0.00529146
-0.00830097
-0.0121811
-0.0172982
-0.022905
-0.0277176
-0.0307652
-0.0300199
-0.0234217
-0.0107363
0.00703139
0.0268248
0.043567
0.0525145
0.0514675
0.0419039
0.02863
0.0174287
0.0110075
0.00717578
0.000266404
-0.0133357
-0.0305183
-0.0424516
-0.040891
-0.0251432
-0.00449628
0.00752997
0.00480739
-0.00684344
-0.0167851
-0.0192796
-0.0150436
-0.00844085
-0.00474701
-0.00703671
-0.0126501
-0.015261
-0.0120664
-0.0074378
-0.00743778
-0.0120664
-0.015261
-0.0126501
-0.00703675
-0.00474715
-0.00844099
-0.0150436
-0.0192795
-0.0167849
-0.00684333
0.00480758
0.00753018
-0.00449635
-0.0251437
-0.0408916
-0.0424518
-0.0305177
-0.0133346
0.000267354
0.00717615
0.0110073
0.0174283
0.02863
0.0419045
0.0514685
0.0525156
0.0435677
0.0268248
0.00703077
-0.0107373
-0.0234227
-0.0300208
-0.0307656
-0.0277176
-0.022905
-0.017298
-0.0121808
-0.00830072
-0.00529124
-0.00320653
-0.00205169
-0.00120809
-0.000676942
-0.000432193
-0.000151897
-6.7784e-05
-0.000153445
-0.000103189
-1.73088e-05
7.63431e-05
1.43689e-05
-7.89089e-05
-0.000151983
-0.000464313
-0.000641029
-0.000933513
-0.00168224
-0.00270213
-0.00449258
-0.00732824
-0.0111352
-0.0162795
-0.0226943
-0.0294869
-0.0355561
-0.0391851
-0.0377398
-0.02936
-0.013543
0.00828249
0.0322392
0.0525013
0.0633037
0.0623657
0.0513714
0.0358484
0.0220442
0.0131922
0.00685524
-0.0033378
-0.0203657
-0.0401223
-0.0529494
-0.0508736
-0.0332972
-0.0103373
0.00346878
0.00124651
-0.0107182
-0.021071
-0.0239904
-0.0203606
-0.0142028
-0.0102076
-0.0117895
-0.0171079
-0.0200806
-0.0173104
-0.0128332
-0.0128331
-0.0173102
-0.0200805
-0.0171079
-0.0117896
-0.0102077
-0.0142028
-0.0203604
-0.02399
-0.0210708
-0.0107182
0.00124654
0.00346894
-0.0103372
-0.0332975
-0.050874
-0.0529495
-0.0401218
-0.0203648
-0.00333691
0.00685565
0.013192
0.0220438
0.0358484
0.0513719
0.0623667
0.0633048
0.0525021
0.0322394
0.00828198
-0.0135438
-0.0293609
-0.0377406
-0.0391857
-0.0355562
-0.0294868
-0.0226941
-0.0162792
-0.0111349
-0.00732805
-0.0044923
-0.00270191
-0.00168215
-0.00093337
-0.000641029
-0.000464395
-0.000151896
-7.8864e-05
1.44361e-05
7.64305e-05
-7.77781e-05
-0.000224922
-0.00029019
-0.000432192
-0.000641029
-0.000807028
-0.0014174
-0.00239886
-0.00373809
-0.00610713
-0.00946732
-0.0141217
-0.0205627
-0.0282534
-0.0363645
-0.0436634
-0.0476965
-0.0456415
-0.0357331
-0.0171912
0.00810448
0.0355353
0.0587246
0.0713322
0.0710352
0.0596899
0.0429991
0.0271937
0.0155903
0.00561747
-0.00869863
-0.0290549
-0.0504365
-0.0633389
-0.0608535
-0.0431058
-0.020263
-0.00613769
-0.00731353
-0.0179122
-0.0274285
-0.030614
-0.0283617
-0.0237192
-0.0200238
-0.0204476
-0.0244711
-0.0273561
-0.0255999
-0.0220928
-0.0220927
-0.0255997
-0.027356
-0.0244712
-0.0204479
-0.020024
-0.0237192
-0.0283613
-0.0306135
-0.0274283
-0.0179125
-0.00731389
-0.00613772
-0.0202628
-0.0431058
-0.0608537
-0.0633388
-0.0504361
-0.0290541
-0.0086977
0.00561815
0.0155903
0.0271935
0.0429991
0.0596905
0.0710362
0.0713334
0.0587255
0.0355355
0.00810397
-0.0171921
-0.0357342
-0.0456424
-0.0476972
-0.0436636
-0.0363644
-0.0282532
-0.0205622
-0.0141212
-0.00946703
-0.00610688
-0.00373785
-0.00239877
-0.00141724
-0.000806836
-0.000641027
-0.000432194
-0.000290193
-0.000224971
-7.77951e-05
-0.000143869
-0.000256034
-0.000359392
-0.000676991
-0.000933513
-0.0014174
-0.00239234
-0.00347942
-0.00521514
-0.00817309
-0.0121755
-0.0178862
-0.0255323
-0.0343599
-0.0436755
-0.0518071
-0.0559133
-0.0533597
-0.0421659
-0.0214181
0.00640731
0.0361191
0.0611269
0.0751035
0.0757094
0.0649116
0.0481745
0.0312288
0.016852
0.00253003
-0.0161511
-0.0392225
-0.0610428
-0.072988
-0.0697898
-0.0531027
-0.0325692
-0.0195197
-0.0191211
-0.0268112
-0.0343979
-0.0376527
-0.0372559
-0.0349864
-0.0323589
-0.0316004
-0.0335954
-0.0358894
-0.0355473
-0.0337125
-0.0337123
-0.035547
-0.0358893
-0.0335956
-0.0316008
-0.0323591
-0.0349863
-0.0372554
-0.0376522
-0.0343979
-0.0268118
-0.0191218
-0.0195198
-0.0325688
-0.0531023
-0.0697895
-0.0729878
-0.0610425
-0.0392218
-0.0161501
0.00253092
0.0168523
0.0312287
0.0481744
0.0649121
0.0757102
0.0751045
0.0611277
0.0361194
0.00640691
-0.021419
-0.0421669
-0.0533605
-0.0559139
-0.0518073
-0.0436753
-0.0343596
-0.0255319
-0.0178857
-0.012175
-0.0081728
-0.00521482
-0.00347928
-0.00239233
-0.00141724
-0.00093337
-0.000676941
-0.000359309
-0.000256037
-0.000143918
-0.000138507
-0.000304252
-0.000629678
-0.00120812
-0.00168224
-0.00239886
-0.00347942
-0.00483513
-0.00725407
-0.0109352
-0.0158349
-0.0227844
-0.031616
-0.0415484
-0.0519929
-0.0607958
-0.0648068
-0.0615427
-0.0488744
-0.0262138
0.00333488
0.0342946
0.0601829
0.0750739
0.0766453
0.0669589
0.0509837
0.0334471
0.01598
-0.00342399
-0.0267029
-0.0520659
-0.0734995
-0.0836648
-0.0794039
-0.0646975
-0.0481481
-0.0371898
-0.0346615
-0.0381041
-0.0426786
-0.045437
-0.0467018
-0.0470584
-0.0460716
-0.0443386
-0.0438225
-0.0449318
-0.0460199
-0.0462303
-0.0462301
-0.0460196
-0.0449318
-0.0438228
-0.044339
-0.0460717
-0.047058
-0.0467012
-0.0454366
-0.0426788
-0.0381049
-0.0346624
-0.0371899
-0.0481474
-0.0646966
-0.0794034
-0.0836647
-0.0734994
-0.0520656
-0.0267022
-0.00342319
0.0159805
0.033447
0.0509835
0.066959
0.0766459
0.0750748
0.0601838
0.034295
0.00333481
-0.0262144
-0.0488753
-0.0615435
-0.0648073
-0.0607961
-0.0519928
-0.0415481
-0.0316156
-0.0227839
-0.0158344
-0.0109349
-0.00725366
-0.00483473
-0.00347928
-0.00239877
-0.00168215
-0.00120809
-0.00062954
-0.00030412
-0.000138486
-0.00031749
-0.000880501
-0.00144488
-0.00205176
-0.00270213
-0.00373809
-0.00521514
-0.00725407
-0.0104148
-0.0147355
-0.0205508
-0.0286322
-0.0386461
-0.0498744
-0.0614476
-0.070821
-0.0747336
-0.0708176
-0.0570009
-0.0330959
-0.00261633
0.0288123
0.0549867
0.0706926
0.0737275
0.0661705
0.0522263
0.0349368
0.0145224
-0.0100678
-0.0378711
-0.0652788
-0.0859557
-0.0939817
-0.0888627
-0.0771925
-0.0660771
-0.0581683
-0.0536299
-0.0524034
-0.0534498
-0.0552024
-0.0576769
-0.0605859
-0.0617254
-0.0596004
-0.0566193
-0.0561234
-0.058319
-0.0605391
-0.060539
-0.058319
-0.0561235
-0.0566197
-0.0596007
-0.0617253
-0.0605854
-0.0576765
-0.0552024
-0.0534504
-0.0524045
-0.053631
-0.0581685
-0.0660762
-0.0771913
-0.0888621
-0.0939817
-0.0859558
-0.0652785
-0.0378705
-0.0100669
0.0145231
0.034937
0.0522261
0.0661703
0.0737279
0.0706934
0.0549875
0.0288128
-0.00261632
-0.0330964
-0.0570018
-0.0708185
-0.0747341
-0.0708214
-0.0614475
-0.0498739
-0.0386456
-0.0286317
-0.0205502
-0.0147351
-0.0104145
-0.00725366
-0.00521481
-0.00373785
-0.00270191
-0.00205169
-0.00144488
-0.000880513
-0.000317509
-0.000400359
-0.00127484
-0.00219383
-0.00320676
-0.00449258
-0.00610713
-0.00817309
-0.0109352
-0.0147355
-0.0199418
-0.0270661
-0.0363976
-0.0476324
-0.0600657
-0.0723305
-0.0818351
-0.0853885
-0.0806592
-0.065895
-0.0413207
-0.0107741
0.0200597
0.0455445
0.0614946
0.0660865
0.0613296
0.0503754
0.0340439
0.0113251
-0.0176474
-0.049217
-0.0779423
-0.0970719
-0.102306
-0.0963898
-0.0881029
-0.0826722
-0.0779556
-0.0716758
-0.0658466
-0.0630243
-0.0631029
-0.0659964
-0.0709196
-0.0743178
-0.0725408
-0.0676581
-0.0654176
-0.0681129
-0.0718755
-0.0718755
-0.0681131
-0.0654179
-0.0676584
-0.0725409
-0.0743175
-0.0709191
-0.0659961
-0.0631033
-0.0630254
-0.0658477
-0.0716766
-0.0779557
-0.0826712
-0.0881013
-0.0963888
-0.102306
-0.0970722
-0.0779421
-0.0492164
-0.0176467
0.0113257
0.034044
0.0503748
0.0613289
0.0660863
0.061495
0.0455451
0.0200602
-0.010774
-0.0413211
-0.0658958
-0.08066
-0.085389
-0.0818354
-0.0723305
-0.0600652
-0.0476319
-0.036397
-0.0270654
-0.0199411
-0.0147351
-0.0109349
-0.00817281
-0.00610688
-0.0044923
-0.00320653
-0.00219369
-0.00127475
-0.00040033
-0.000630264
-0.00210193
-0.00363103
-0.00529146
-0.00732824
-0.00946732
-0.0121755
-0.0158349
-0.0205508
-0.0270661
-0.0356704
-0.046232
-0.0588051
-0.0724221
-0.085159
-0.09466
-0.0976994
-0.0917685
-0.0757671
-0.0506006
-0.0203575
0.00942198
0.0338581
0.049815
0.0561695
0.0547215
0.0471858
0.0321346
0.00771975
-0.024749
-0.0595338
-0.0890868
-0.106172
-0.108569
-0.102408
-0.0976017
-0.0971955
-0.0953233
-0.0877458
-0.0777784
-0.0708191
-0.0684467
-0.0706616
-0.0764952
-0.0816479
-0.0807617
-0.0748205
-0.0709283
-0.0733088
-0.0777865
-0.0777867
-0.0733093
-0.0709287
-0.0748207
-0.0807615
-0.0816475
-0.0764948
-0.0706617
-0.0684477
-0.0708206
-0.0777796
-0.0877463
-0.0953232
-0.0971946
-0.0976002
-0.102407
-0.10857
-0.106173
-0.0890871
-0.0595336
-0.0247487
0.00771991
0.0321345
0.0471851
0.0547204
0.0561689
0.0498152
0.0338586
0.00942255
-0.0203571
-0.0506007
-0.0757678
-0.0917693
-0.0977001
-0.0946604
-0.0851591
-0.0724218
-0.0588046
-0.0462315
-0.0356698
-0.0270654
-0.0205502
-0.0158344
-0.012175
-0.00946703
-0.00732805
-0.00529124
-0.00363081
-0.00210177
-0.000630188
-0.0011083
-0.0035876
-0.00596226
-0.00830097
-0.0111352
-0.0141217
-0.0178862
-0.0227844
-0.0286322
-0.0363976
-0.046232
-0.0578536
-0.0716802
-0.0863026
-0.099267
-0.10853
-0.110828
-0.103514
-0.0863891
-0.061095
-0.0315297
-0.00293613
0.0204455
0.0366171
0.0454608
0.0482891
0.0448999
0.0320642
0.00739171
-0.0270577
-0.0639911
-0.0935293
-0.108165
-0.108398
-0.103093
-0.101873
-0.105608
-0.106415
-0.0985847
-0.0856719
-0.0749997
-0.0700103
-0.0708572
-0.0764966
-0.0826733
-0.0831604
-0.0773335
-0.0722861
-0.0736885
-0.0779896
-0.07799
-0.0736892
-0.0722866
-0.0773335
-0.08316
-0.0826728
-0.0764965
-0.0708579
-0.0700118
-0.0750015
-0.0856729
-0.0985848
-0.106415
-0.105607
-0.101872
-0.103092
-0.108398
-0.108166
-0.0935298
-0.063991
-0.0270574
0.00739163
0.0320638
0.044899
0.0482878
0.0454598
0.0366169
0.0204458
-0.00293574
-0.0315295
-0.0610952
-0.0863898
-0.103515
-0.110829
-0.10853
-0.0992672
-0.0863025
-0.0716796
-0.0578529
-0.0462315
-0.036397
-0.0286317
-0.0227839
-0.0178857
-0.0141212
-0.0111349
-0.00830072
-0.00596215
-0.00358757
-0.00110825
-0.00162324
-0.00514343
-0.00864252
-0.0121811
-0.0162795
-0.0205627
-0.0255323
-0.031616
-0.0386461
-0.0476324
-0.0588051
-0.0716802
-0.0864837
-0.101479
-0.114006
-0.122236
-0.122963
-0.113708
-0.095227
-0.0698327
-0.0410073
-0.0137965
0.00813325
0.0243823
0.0358931
0.0431323
0.0439132
0.033981
0.0104884
-0.0243303
-0.0617148
-0.0897232
-0.101267
-0.0999954
-0.0961536
-0.0978102
-0.104145
-0.106937
-0.0994795
-0.0845889
-0.0707761
-0.0632179
-0.0621329
-0.0663187
-0.0724394
-0.0743818
-0.0697324
-0.064235
-0.0643184
-0.0677395
-0.0677399
-0.0643192
-0.0642354
-0.0697322
-0.0743811
-0.072439
-0.0663189
-0.062134
-0.0632197
-0.0707776
-0.0845895
-0.0994791
-0.106936
-0.104144
-0.0978092
-0.0961526
-0.099995
-0.101268
-0.0897241
-0.0617152
-0.0243304
0.0104878
0.0339799
0.0439118
0.0431307
0.0358917
0.0243815
0.00813331
-0.0137961
-0.0410073
-0.069833
-0.0952276
-0.113709
-0.122964
-0.122237
-0.114007
-0.101479
-0.0864836
-0.0716796
-0.0588046
-0.0476319
-0.0386456
-0.0316156
-0.0255319
-0.0205623
-0.0162792
-0.0121808
-0.0086423
-0.00514331
-0.00162315
-0.00237991
-0.00727433
-0.012231
-0.0172982
-0.0226943
-0.0282534
-0.0343599
-0.0415484
-0.0498744
-0.0600657
-0.0724221
-0.0863026
-0.101479
-0.116291
-0.128028
-0.134567
-0.132969
-0.121272
-0.100859
-0.0747027
-0.0461745
-0.020106
0.000678677
0.0175361
0.0319935
0.0434028
0.0481452
0.0414649
0.0199148
-0.0142084
-0.0505377
-0.075946
-0.084797
-0.0834648
-0.0820081
-0.0861887
-0.0941911
-0.098529
-0.091967
-0.076183
-0.0602687
-0.0506536
-0.0473626
-0.0490147
-0.0538731
-0.0568849
-0.0540446
-0.0488599
-0.0477308
-0.0499655
-0.0499657
-0.0477313
-0.0488601
-0.0540442
-0.0568842
-0.0538728
-0.0490154
-0.0473642
-0.0506553
-0.0602698
-0.0761831
-0.0919662
-0.0985276
-0.0941899
-0.0861879
-0.0820074
-0.0834642
-0.0847971
-0.075947
-0.0505388
-0.014209
0.019914
0.0414635
0.0481435
0.0434012
0.031992
0.017535
0.000678503
-0.0201056
-0.0461743
-0.0747031
-0.10086
-0.121273
-0.13297
-0.134568
-0.128029
-0.116292
-0.101479
-0.0863025
-0.0724218
-0.0600652
-0.0498739
-0.041548
-0.0343596
-0.0282532
-0.0226941
-0.017298
-0.0122308
-0.00727418
-0.00237983
-0.00329823
-0.00989171
-0.0164455
-0.022905
-0.0294869
-0.0363645
-0.0436755
-0.0519929
-0.0614476
-0.0723305
-0.085159
-0.099267
-0.114006
-0.128028
-0.138365
-0.142348
-0.137839
-0.123526
-0.100928
-0.0737866
-0.0456542
-0.0206434
-0.000378782
0.0176653
0.0351151
0.0504613
0.0592678
0.0561798
0.037121
0.00501491
-0.0284183
-0.0503559
-0.057453
-0.0575672
-0.0594291
-0.0664007
-0.0760315
-0.0818446
-0.0767329
-0.0615365
-0.0452483
-0.0347356
-0.0295735
-0.0283253
-0.0310772
-0.0345479
-0.033745
-0.0297167
-0.0280238
-0.0292615
-0.0292614
-0.0280237
-0.0297165
-0.0337446
-0.0345475
-0.0310774
-0.0283265
-0.0295753
-0.0347371
-0.0452486
-0.0615359
-0.0767317
-0.081843
-0.07603
-0.0663998
-0.0594284
-0.0575663
-0.0574525
-0.0503566
-0.0284197
0.00501391
0.0371203
0.0561786
0.0592662
0.0504598
0.0351139
0.0176644
-0.000379229
-0.0206432
-0.045654
-0.0737871
-0.100929
-0.123527
-0.137841
-0.142349
-0.138367
-0.128029
-0.114007
-0.0992672
-0.0851591
-0.0723304
-0.0614475
-0.0519927
-0.0436753
-0.0363644
-0.0294868
-0.022905
-0.0164455
-0.00989174
-0.00329822
-0.00398247
-0.0119777
-0.0199649
-0.0277176
-0.0355561
-0.0436634
-0.0518071
-0.0607958
-0.070821
-0.0818351
-0.09466
-0.10853
-0.122236
-0.134567
-0.142348
-0.142703
-0.134573
-0.117122
-0.0919754
-0.0638939
-0.0365601
-0.01283
0.00684251
0.0253568
0.044601
0.0628216
0.0748392
0.0745206
0.0577996
0.0290399
0.00028625
-0.0175605
-0.0235604
-0.0257376
-0.0311888
-0.0412138
-0.0524001
-0.0591253
-0.0554126
-0.0420071
-0.0269368
-0.0165747
-0.0100436
-0.00599503
-0.00601955
-0.00897969
-0.00991057
-0.00773734
-0.00639827
-0.0071164
-0.00711609
-0.00639758
-0.00773669
-0.00991022
-0.00897972
-0.00602017
-0.00599641
-0.0100453
-0.0165755
-0.0269361
-0.0420056
-0.0554109
-0.0591235
-0.0523983
-0.0412123
-0.0311878
-0.0257366
-0.0235596
-0.0175609
0.000284685
0.0290382
0.0577986
0.0745197
0.0748378
0.0628201
0.0445999
0.0253561
0.0068422
-0.0128298
-0.0365599
-0.063894
-0.0919762
-0.117123
-0.134575
-0.142704
-0.142349
-0.134568
-0.122237
-0.10853
-0.0946604
-0.0818354
-0.0708214
-0.060796
-0.0518073
-0.0436636
-0.0355562
-0.0277176
-0.019965
-0.0119778
-0.00398247
-0.00445448
-0.0133105
-0.0221839
-0.0307652
-0.0391851
-0.0476965
-0.0559133
-0.0648068
-0.0747336
-0.0853885
-0.0976994
-0.110828
-0.122963
-0.132969
-0.137839
-0.134573
-0.122798
-0.102131
-0.0746012
-0.0458264
-0.0193498
0.00319895
0.02218
0.0404898
0.0606108
0.0806197
0.0942455
0.0949438
0.0798366
0.05496
0.0312761
0.016881
0.0108764
0.0057997
-0.00417199
-0.0183597
-0.0315684
-0.0388957
-0.0367203
-0.0263347
-0.0138747
-0.0045232
0.00271476
0.00908662
0.0122364
0.0110019
0.00906066
0.0089936
0.00921539
0.00860805
0.00860856
0.00921655
0.00899456
0.00906081
0.0110012
0.0122351
0.00908506
0.00271338
-0.00452344
-0.0138733
-0.0263325
-0.0367183
-0.0388942
-0.0315667
-0.0183579
-0.00417058
0.00580073
0.010877
0.0168807
0.0312746
0.054958
0.0798353
0.0949433
0.0942449
0.0806188
0.0606102
0.0404897
0.0221803
0.00319949
-0.0193493
-0.0458261
-0.0746015
-0.102132
-0.1228
-0.134575
-0.137841
-0.13297
-0.122964
-0.110829
-0.0977
-0.085389
-0.0747341
-0.0648073
-0.0559139
-0.0476971
-0.0391857
-0.0307656
-0.0221843
-0.0133107
-0.00445452
-0.00452064
-0.0131864
-0.0217536
-0.0300199
-0.0377398
-0.0456415
-0.0533597
-0.0615427
-0.0708176
-0.0806592
-0.0917685
-0.103514
-0.113708
-0.121272
-0.123526
-0.117122
-0.102131
-0.0790759
-0.0504532
-0.0220503
0.00275342
0.0232641
0.0406763
0.0579665
0.0780755
0.0984966
0.111937
0.112317
0.0987797
0.0783629
0.0599551
0.0488637
0.0427951
0.034669
0.0195051
0.00041036
-0.0150038
-0.0227171
-0.0224338
-0.0161026
-0.00728179
0.000305117
0.00730639
0.0151177
0.021486
0.0228964
0.0205867
0.0181228
0.0168808
0.0163044
0.0163049
0.016882
0.0181238
0.0205866
0.0228952
0.0214843
0.0151161
0.00730549
0.000305514
-0.0072799
-0.0161
-0.0224316
-0.0227157
-0.0150024
0.00041215
0.0195069
0.0346702
0.0427954
0.0488632
0.0599537
0.078361
0.0987783
0.112317
0.111937
0.0984967
0.0780755
0.0579668
0.0406771
0.0232651
0.00275432
-0.0220497
-0.050453
-0.0790766
-0.102132
-0.117123
-0.123527
-0.121273
-0.113709
-0.103515
-0.0917693
-0.0806599
-0.0708184
-0.0615434
-0.0533605
-0.0456424
-0.0377406
-0.0300207
-0.0217543
-0.0131868
-0.00452083
-0.00357152
-0.0101567
-0.0167933
-0.0234217
-0.02936
-0.0357331
-0.0421659
-0.0488744
-0.0570009
-0.065895
-0.0757671
-0.0863891
-0.095227
-0.100859
-0.100928
-0.0919754
-0.0746012
-0.0504532
-0.0222569
0.00448255
0.0262556
0.0432859
0.057917
0.0731232
0.09177
0.110605
0.122045
0.121196
0.109262
0.0934786
0.0806001
0.073527
0.068307
0.0576423
0.037506
0.0140012
-0.00299418
-0.0107295
-0.0124199
-0.0103307
-0.0053013
0.000257884
0.00635697
0.0149159
0.0244184
0.0290244
0.0268803
0.0223213
0.0200017
0.0198891
0.0198895
0.0200025
0.0223219
0.0268799
0.0290228
0.0244164
0.0149144
0.00635672
0.00025898
-0.00529907
-0.0103279
-0.0124174
-0.0107279
-0.00299305
0.0140027
0.0375079
0.0576435
0.0683069
0.0735258
0.0805984
0.0934767
0.10926
0.121195
0.122045
0.110606
0.0917704
0.0731237
0.057918
0.0432872
0.0262571
0.00448382
-0.022256
-0.050453
-0.0746015
-0.0919762
-0.100929
-0.10086
-0.0952276
-0.0863897
-0.0757678
-0.0658958
-0.0570018
-0.0488753
-0.0421669
-0.0357341
-0.0293609
-0.0234226
-0.016794
-0.0101572
-0.00357175
-0.00168153
-0.00447898
-0.00746305
-0.0107363
-0.013543
-0.0171912
-0.0214181
-0.0262138
-0.0330959
-0.0413207
-0.0506006
-0.061095
-0.0698327
-0.0747027
-0.0737866
-0.0638939
-0.0458264
-0.0220503
0.00448255
0.0286445
0.0467135
0.059893
0.0715796
0.0843704
0.100591
0.116437
0.124763
0.122021
0.111195
0.0995072
0.0921571
0.0897171
0.0859048
0.0730181
0.0486666
0.0219814
0.00411972
-0.00361607
-0.00723879
-0.00892041
-0.00724824
-0.00360404
0.00139093
0.0103757
0.0227519
0.0306121
0.0290958
0.0233086
0.0209997
0.0221712
0.0221712
0.0209997
0.0233085
0.029095
0.0306105
0.02275
0.0103746
0.00139128
-0.00360241
-0.00724595
-0.00891793
-0.00723646
-0.00361444
0.00412053
0.0219821
0.0486677
0.0730189
0.085904
0.0897148
0.0921545
0.0995051
0.111194
0.122021
0.124764
0.116438
0.100592
0.0843713
0.0715809
0.0598945
0.0467153
0.0286463
0.00448382
-0.0220497
-0.0458261
-0.063894
-0.0737871
-0.0747032
-0.069833
-0.0610952
-0.0506007
-0.0413211
-0.0330964
-0.0262144
-0.021419
-0.0171921
-0.0135438
-0.0107373
-0.00746372
-0.00447942
-0.00168177
0.00104298
0.00352426
0.00562857
0.00703139
0.00828249
0.00810448
0.00640731
0.00333488
-0.00261633
-0.0107741
-0.0203575
-0.0315297
-0.0410073
-0.0461745
-0.0456542
-0.0365601
-0.0193498
0.00275342
0.0262556
0.0467135
0.0605246
0.0697431
0.0785485
0.0891015
0.10291
0.115768
0.121307
0.117156
0.107874
0.100816
0.100028
0.10331
0.10166
0.0874363
0.0605643
0.0323736
0.0140123
0.00569293
-0.000129187
-0.00532316
-0.00697378
-0.00551386
-0.0020092
0.00670624
0.0207918
0.0310023
0.030226
0.0242605
0.0231628
0.02634
0.0263397
0.0231619
0.0242594
0.0302246
0.0310008
0.0207904
0.00670582
-0.00200817
-0.00551178
-0.00697146
-0.00532095
-0.000126985
0.00569477
0.0140131
0.0323737
0.0605646
0.0874364
0.101659
0.103308
0.100025
0.100813
0.107873
0.117155
0.121308
0.115769
0.102911
0.0891023
0.0785496
0.0697444
0.0605262
0.0467153
0.0262571
0.0027543
-0.0193493
-0.0365599
-0.045654
-0.0461744
-0.0410073
-0.0315295
-0.0203571
-0.010774
-0.00261631
0.00333482
0.00640692
0.00810398
0.00828199
0.00703077
0.00562813
0.00352398
0.0010428
0.00414748
0.012576
0.0203551
0.0268248
0.0322392
0.0355353
0.0361191
0.0342946
0.0288123
0.0200597
0.00942198
-0.00293613
-0.0137965
-0.020106
-0.0206434
-0.01283
0.00319895
0.0232641
0.0432859
0.059893
0.0697431
0.0754184
0.0817578
0.0905856
0.102202
0.112129
0.115048
0.109674
0.102106
0.100007
0.106298
0.115558
0.116413
0.102062
0.0748737
0.0469544
0.02841
0.0190521
0.0110162
0.00268436
-0.00217382
-0.00292856
-0.00101295
0.00669226
0.0209252
0.0323185
0.0325642
0.02768
0.0287633
0.0342435
0.034243
0.0287617
0.027678
0.0325624
0.0323172
0.0209248
0.006693
-0.00101105
-0.00292602
-0.00217141
0.00268646
0.0110183
0.0190542
0.0284112
0.0469543
0.0748729
0.102062
0.116411
0.115555
0.106294
0.100004
0.102105
0.109674
0.115048
0.11213
0.102203
0.0905861
0.0817585
0.0754193
0.0697444
0.0598945
0.0432873
0.0232651
0.00319946
-0.0128298
-0.0206432
-0.0201056
-0.0137961
-0.00293576
0.00942253
0.0200602
0.0288127
0.034295
0.0361194
0.0355355
0.0322394
0.0268248
0.0203552
0.012576
0.00414743
0.00676265
0.0201542
0.0327394
0.043567
0.0525013
0.0587246
0.0611269
0.0601829
0.0549867
0.0455445
0.0338581
0.0204455
0.00813325
0.000678677
-0.000378782
0.00684251
0.02218
0.0406763
0.057917
0.0715796
0.0785485
0.0817578
0.0865179
0.0942082
0.103655
0.110449
0.110489
0.103493
0.0971246
0.0994187
0.111943
0.126018
0.128873
0.115161
0.0892357
0.0625957
0.0437661
0.0327598
0.0222389
0.0107547
0.00258258
-0.00051055
-0.000462864
0.00516396
0.0177558
0.0292079
0.0309064
0.0281802
0.0317643
0.0392058
0.0392052
0.0317626
0.0281777
0.0309041
0.0292068
0.0177563
0.005166
-0.000459951
-0.000507565
0.00258506
0.0107567
0.0222411
0.032762
0.0437674
0.0625955
0.0892342
0.11516
0.128871
0.126016
0.11194
0.0994161
0.0971234
0.103493
0.11049
0.11045
0.103656
0.0942089
0.0865185
0.0817585
0.0785496
0.0715809
0.057918
0.0406771
0.0221803
0.00684218
-0.000379264
0.000678462
0.00813328
0.0204458
0.0338586
0.0455451
0.0549874
0.0601838
0.0611277
0.0587255
0.0525021
0.0435676
0.03274
0.0201545
0.00676274
0.00822386
0.0242223
0.0393297
0.0525145
0.0633037
0.0713322
0.0751035
0.0750739
0.0706926
0.0614946
0.049815
0.0366171
0.0243823
0.0175361
0.0176653
0.0253568
0.0404898
0.0579665
0.0731232
0.0843704
0.0891015
0.0905856
0.0942082
0.100898
0.108138
0.111763
0.108633
0.099498
0.0936735
0.0993279
0.116298
0.133134
0.136896
0.12391
0.0998014
0.074549
0.0549457
0.0414487
0.0277609
0.0126582
0.000742401
-0.00522638
-0.00782574
-0.00560317
0.00372446
0.014347
0.0178114
0.0177481
0.0234052
0.0319436
0.031943
0.0234035
0.0177456
0.017809
0.014346
0.00372563
-0.00560019
-0.00782201
-0.00522301
0.000744882
0.0126601
0.0277628
0.0414505
0.0549468
0.0745487
0.0997996
0.123907
0.136894
0.133132
0.116296
0.0993262
0.0936729
0.0994989
0.108634
0.111764
0.108139
0.100899
0.0942089
0.0905862
0.0891023
0.0843713
0.0731237
0.0579668
0.0404897
0.0253561
0.0176643
0.017535
0.0243815
0.0366169
0.0498152
0.061495
0.0706933
0.0750748
0.0751044
0.0713333
0.0633048
0.0525156
0.0393307
0.0242229
0.00822408
0.00800185
0.0233824
0.0381885
0.0514675
0.0623657
0.0710352
0.0757094
0.0766453
0.0737275
0.0660865
0.0561695
0.0454608
0.0358931
0.0319935
0.0351151
0.044601
0.0606108
0.0780755
0.09177
0.100591
0.10291
0.102202
0.103655
0.108138
0.11201
0.111151
0.103295
0.0907928
0.0845156
0.0920996
0.1114
0.129185
0.133378
0.121676
0.100291
0.0772739
0.057661
0.0421692
0.0258002
0.00760558
-0.00773631
-0.0167343
-0.0223655
-0.0240322
-0.0185022
-0.00900549
-0.00365359
-0.00108755
0.0058765
0.0145763
0.0145758
0.00587518
-0.00108952
-0.0036554
-0.00900602
-0.0185008
-0.0240289
-0.0223613
-0.0167306
-0.00773366
0.00760737
0.0258016
0.0421704
0.0576615
0.0772732
0.100288
0.121673
0.133376
0.129184
0.111399
0.0920989
0.0845155
0.090794
0.103297
0.111154
0.112011
0.108139
0.103656
0.102203
0.102911
0.100592
0.0917704
0.0780755
0.0606102
0.0445999
0.0351139
0.031992
0.0358916
0.0454598
0.0561689
0.0660863
0.0737278
0.0766459
0.0757102
0.0710362
0.0623667
0.0514685
0.0381893
0.023383
0.00800208
0.00644939
0.0186074
0.0306315
0.0419039
0.0513714
0.0596899
0.0649116
0.0669589
0.0661705
0.0613296
0.0547215
0.0482891
0.0431323
0.0434028
0.0504613
0.0628216
0.0806197
0.0984966
0.110605
0.116437
0.115768
0.112129
0.110449
0.111763
0.111151
0.104418
0.0906461
0.0743213
0.0670427
0.0751396
0.0948288
0.112326
0.116843
0.10689
0.0889417
0.0692438
0.0510719
0.0349567
0.0172037
-0.00298428
-0.0211693
-0.0331896
-0.0416805
-0.0466511
-0.0444589
-0.0362119
-0.0294002
-0.0247332
-0.0171615
-0.00892509
-0.00892552
-0.0171626
-0.0247344
-0.0294008
-0.0362115
-0.0444572
-0.0466481
-0.0416766
-0.0331857
-0.0211664
-0.00298259
0.0172044
0.0349566
0.051071
0.0692423
0.0889393
0.106887
0.116841
0.112325
0.0948289
0.07514
0.0670432
0.0743224
0.0906484
0.10442
0.111154
0.111764
0.11045
0.11213
0.115769
0.116438
0.110606
0.0984967
0.0806188
0.0628201
0.0504597
0.0434012
0.0431306
0.0482877
0.0547203
0.0613288
0.0661703
0.066959
0.0649121
0.0596905
0.0513719
0.0419045
0.030632
0.0186077
0.00644956
0.00425418
0.0120469
0.0202752
0.02863
0.0358484
0.0429991
0.0481745
0.0509837
0.0522263
0.0503754
0.0471858
0.0448999
0.0439132
0.0481452
0.0592678
0.0748392
0.0942455
0.111937
0.122045
0.124763
0.121307
0.115048
0.110489
0.108633
0.103295
0.0906461
0.0715985
0.0524604
0.0443919
0.0523535
0.0717795
0.0890522
0.0943937
0.0867482
0.0730849
0.0582575
0.0436875
0.0290925
0.0118072
-0.0090692
-0.0294731
-0.0442383
-0.0547393
-0.0616467
-0.0620229
-0.0555741
-0.0484692
-0.0425937
-0.0348751
-0.0273336
-0.0273341
-0.034876
-0.0425939
-0.0484682
-0.0555722
-0.0620207
-0.0616443
-0.0547363
-0.044235
-0.0294703
-0.00906752
0.0118073
0.0290911
0.043685
0.0582546
0.073082
0.0867454
0.0943913
0.0890508
0.0717795
0.0523544
0.0443931
0.0524616
0.0716003
0.0906484
0.103297
0.108634
0.11049
0.115048
0.121308
0.124764
0.122045
0.111937
0.0942448
0.0748377
0.0592661
0.0481435
0.0439117
0.0448989
0.047185
0.0503748
0.0522261
0.0509835
0.0481744
0.0429992
0.0358484
0.02863
0.0202751
0.0120468
0.00425422
0.002599
0.00701488
0.0119731
0.0174287
0.0220442
0.0271937
0.0312288
0.0334471
0.0349368
0.0340439
0.0321346
0.0320642
0.033981
0.0414649
0.0561798
0.0745206
0.0949438
0.112317
0.121196
0.122021
0.117156
0.109674
0.103493
0.099498
0.0907928
0.0743213
0.0524604
0.0325335
0.0248021
0.0335415
0.0538091
0.0719465
0.0787319
0.0738448
0.0653344
0.056994
0.0481231
0.0369541
0.0214976
0.000653451
-0.0216374
-0.0387445
-0.050236
-0.0579557
-0.0608283
-0.0575684
-0.0519609
-0.0460192
-0.0385673