/*--------------------------------*- C++ -*----------------------------------*\
  =========                 |
  \\      /  F ield         | OpenFOAM: The Open Source CFD Toolbox
   \\    /   O peration     | Website:  https://openfoam.org
    \\  /    A nd           | Version:  10
     \\/     M anipulation  |
\*---------------------------------------------------------------------------*/
FoamFile
{
    format      ascii;
    class       volScalarField;
    location    "39";
    object      h_0;
}
// * * * * * * * * * * * * * * * * * * * * * * * * * * * * * * * * * * * * * //

dimensions      [0 1 0 0 0 0 0];

internalField   nonuniform List<scalar> 
10000
(
-5.72859e-05
-4.54814e-05
-3.96932e-05
-1.31564e-05
7.30138e-05
-8.20682e-05
-0.000144259
-0.000138174
-0.000314038
-0.000394133
-0.000625004
-0.00109998
-0.00161112
-0.00236682
-0.00327987
-0.00396472
-0.00444755
-0.00452852
-0.00359657
-0.00172543
0.000984701
0.00409076
0.00671938
0.00821006
0.00801916
0.00648581
0.00429524
0.00262552
0.00182977
0.00149891
0.000804267
-0.00121782
-0.00411892
-0.00644746
-0.00626143
-0.00354517
6.21662e-05
0.00204648
0.00144598
-0.0007689
-0.00270499
-0.00315858
-0.00218887
-0.000736189
-9.1648e-05
-0.000727673
-0.00191377
-0.00231628
-0.00159108
-0.000659159
-0.000659173
-0.00159111
-0.00231629
-0.00191377
-0.000727672
-9.16691e-05
-0.000736229
-0.00218894
-0.00315865
-0.00270504
-0.000768878
0.00144607
0.00204658
6.21595e-05
-0.00354532
-0.00626164
-0.00644756
-0.00411878
-0.00121754
0.000804519
0.00149901
0.00182976
0.00262549
0.00429526
0.00648598
0.00801939
0.00821029
0.00671947
0.00409071
0.000984525
-0.00172568
-0.00359681
-0.00452871
-0.00444759
-0.00396472
-0.00327987
-0.00236675
-0.00161104
-0.00109994
-0.000624929
-0.000394105
-0.000314056
-0.000138154
-0.000144308
-8.20873e-05
7.30981e-05
-1.315e-05
-3.97168e-05
-4.55193e-05
-5.73329e-05
-4.54814e-05
7.11954e-05
1.47225e-05
-9.83533e-05
1.24687e-05
-0.000222896
-0.000247613
-0.000302203
-0.000872547
-0.00125815
-0.00208583
-0.00355935
-0.00510267
-0.00723451
-0.00984722
-0.0119413
-0.0133021
-0.0132158
-0.0102343
-0.00460807
0.00336175
0.0124246
0.0200486
0.0242038
0.0234536
0.0187317
0.0121772
0.00709697
0.00461199
0.00356925
0.00143134
-0.00442658
-0.0127197
-0.0191556
-0.0184171
-0.0103419
0.000306571
0.00631091
0.00476845
-0.0014815
-0.00694081
-0.00820842
-0.00546789
-0.00136906
0.000534046
-0.00119016
-0.00453721
-0.00574484
-0.00372041
-0.00107156
-0.00107158
-0.00372045
-0.00574482
-0.00453715
-0.00119009
0.000534058
-0.00136909
-0.00546795
-0.00820845
-0.00694078
-0.00148132
0.00476876
0.00631119
0.00030658
-0.0103423
-0.0184176
-0.0191559
-0.0127194
-0.004426
0.00143181
0.00356927
0.00461172
0.00709664
0.0121771
0.0187321
0.0234542
0.0242044
0.020049
0.0124246
0.00336147
-0.00460851
-0.0102348
-0.0132163
-0.0133022
-0.0119414
-0.00984725
-0.00723436
-0.00510255
-0.00355931
-0.00208567
-0.00125807
-0.000872557
-0.000302074
-0.000247614
-0.000222945
1.25309e-05
-9.84017e-05
1.47611e-05
7.12623e-05
-4.55172e-05
-3.96932e-05
1.47225e-05
-6.47883e-05
-0.000147807
-7.93219e-05
-0.000285362
-0.000348463
-0.000626298
-0.00143098
-0.00216721
-0.0036014
-0.00591257
-0.00857499
-0.0121614
-0.0163708
-0.019906
-0.0221694
-0.0218013
-0.0169229
-0.00767723
0.00536421
0.0201066
0.0325687
0.0392981
0.0383023
0.0308356
0.0204886
0.0121182
0.00771084
0.00554769
0.00139295
-0.00833085
-0.0215337
-0.0313415
-0.0302652
-0.0177678
-0.00122938
0.00832979
0.00612554
-0.00337349
-0.0116369
-0.013641
-0.00972631
-0.00376261
-0.000745535
-0.00305713
-0.00796122
-0.00993048
-0.00701999
-0.00307087
-0.00307087
-0.00701999
-0.00993043
-0.00796114
-0.00305708
-0.000745565
-0.00376269
-0.00972637
-0.013641
-0.0116368
-0.00337329
0.00612586
0.00833007
-0.00122944
-0.0177683
-0.0302658
-0.0313419
-0.0215333
-0.00833004
0.00139363
0.00554779
0.00771048
0.0121178
0.0204885
0.0308361
0.0383032
0.0392991
0.0325693
0.0201067
0.00536377
-0.00767791
-0.0169236
-0.021802
-0.0221697
-0.0199061
-0.0163708
-0.0121612
-0.00857477
-0.00591247
-0.00360119
-0.00216707
-0.00143097
-0.000626166
-0.000348374
-0.00028536
-7.92797e-05
-0.000147863
-6.4802e-05
1.47573e-05
-3.97159e-05
-1.31564e-05
-9.83533e-05
-0.000147807
-6.13938e-05
-0.000153561
-0.000431835
-0.000670091
-0.00119781
-0.00202802
-0.00317171
-0.00524632
-0.00823235
-0.0120942
-0.0171997
-0.0227962
-0.0276297
-0.0307374
-0.0300794
-0.0235933
-0.0110215
0.00668006
0.0264875
0.0433334
0.0524611
0.0516052
0.0421659
0.0289058
0.0176307
0.0111321
0.00730491
0.000498001
-0.0129867
-0.0301676
-0.0422899
-0.0410174
-0.0254591
-0.0047689
0.00749218
0.00502686
-0.00652693
-0.0165831
-0.0192656
-0.0151057
-0.00843837
-0.00465949
-0.00692326
-0.0125437
-0.0151639
-0.0119948
-0.00739902
-0.007399
-0.0119947
-0.0151638
-0.0125437
-0.0069233
-0.00465962
-0.0084385
-0.0151057
-0.0192655
-0.0165829
-0.00652681
0.00502705
0.00749238
-0.00476897
-0.0254596
-0.041018
-0.0422901
-0.030167
-0.0129857
0.000498944
0.00730527
0.0111318
0.0176303
0.0289058
0.0421665
0.0516063
0.0524622
0.0433341
0.0264875
0.00667942
-0.0110224
-0.0235943
-0.0300802
-0.0307378
-0.0276298
-0.0227962
-0.0171995
-0.0120938
-0.00823209
-0.0052461
-0.00317148
-0.00202794
-0.00119778
-0.000670043
-0.000431839
-0.000153479
-6.12922e-05
-0.000147863
-9.8403e-05
-1.31493e-05
7.30138e-05
1.24687e-05
-7.93219e-05
-0.000153561
-0.000457913
-0.000629453
-0.00091997
-0.00166122
-0.0026716
-0.00444967
-0.00726344
-0.0110437
-0.0161662
-0.0225634
-0.0293552
-0.0354572
-0.0391567
-0.0378168
-0.0295717
-0.0138868
0.0078676
0.0318462
0.0522398
0.0632563
0.0625436
0.0516981
0.0361913
0.0223131
0.0133832
0.00705339
-0.00303904
-0.0199509
-0.0397237
-0.0527788
-0.0510252
-0.0336465
-0.0106295
0.00342201
0.0014695
-0.0103794
-0.0208246
-0.0239311
-0.0203924
-0.0141811
-0.0100925
-0.011637
-0.0169607
-0.0199475
-0.0172006
-0.0127501
-0.01275
-0.0172005
-0.0199474
-0.0169607
-0.0116371
-0.0100926
-0.0141812
-0.0203922
-0.0239307
-0.0208243
-0.0103794
0.00146953
0.00342217
-0.0106294
-0.0336469
-0.0510256
-0.0527789
-0.0397232
-0.01995
-0.00303815
0.00705379
0.0133829
0.0223126
0.0361912
0.0516987
0.0625447
0.0632575
0.0522407
0.0318464
0.00786708
-0.0138877
-0.0295727
-0.0378176
-0.0391572
-0.0354573
-0.0293551
-0.0225632
-0.0161659
-0.0110433
-0.00726325
-0.0044494
-0.00267137
-0.00166114
-0.000919827
-0.00062945
-0.000457994
-0.000153478
-7.92782e-05
1.25338e-05
7.30983e-05
-8.20682e-05
-0.000222896
-0.000285362
-0.000431835
-0.000629453
-0.000794454
-0.00140455
-0.00237095
-0.00369905
-0.00604967
-0.00937844
-0.0140062
-0.0204199
-0.0280855
-0.0362013
-0.0435389
-0.0476529
-0.0457276
-0.0359784
-0.0175853
0.0076316
0.0350893
0.0584295
0.0712752
0.0712299
0.0600559
0.0433982
0.0275412
0.0158824
0.00592959
-0.00829014
-0.0285482
-0.0499765
-0.0631329
-0.0609747
-0.043414
-0.0205115
-0.00616101
-0.00709176
-0.0175729
-0.0271479
-0.0304946
-0.0283429
-0.0236744
-0.0198946
-0.0202749
-0.0243043
-0.0272097
-0.0254705
-0.0219759
-0.0219758
-0.0254703
-0.0272096
-0.0243044
-0.0202752
-0.0198949
-0.0236744
-0.0283426
-0.0304942
-0.0271478
-0.0175732
-0.00709212
-0.00616103
-0.0205114
-0.0434141
-0.0609749
-0.0631328
-0.0499761
-0.0285475
-0.00828921
0.00593027
0.0158825
0.027541
0.0433982
0.0600565
0.071231
0.0712764
0.0584304
0.0350895
0.00763108
-0.0175862
-0.0359794
-0.0457285
-0.0476536
-0.0435391
-0.0362011
-0.0280852
-0.0204195
-0.0140057
-0.00937814
-0.00604943
-0.0036988
-0.00237086
-0.00140439
-0.000794261
-0.000629448
-0.00043184
-0.000285364
-0.000222945
-8.2089e-05
-0.000144259
-0.000247613
-0.000348463
-0.000670091
-0.00091997
-0.00140455
-0.0023715
-0.00343736
-0.00516074
-0.00809612
-0.0120643
-0.0177481
-0.0253607
-0.0341605
-0.043483
-0.0516545
-0.0558526
-0.0534474
-0.0424232
-0.0218284
0.00591376
0.0356568
0.0608252
0.075048
0.0759115
0.0652909
0.0486051
0.0316374
0.0172359
0.00294969
-0.015644
-0.0386542
-0.0605628
-0.0727673
-0.0698656
-0.0533328
-0.0327393
-0.0194985
-0.0189007
-0.0264832
-0.034084
-0.0374442
-0.03714
-0.0348763
-0.0321865
-0.0313834
-0.0333851
-0.0357045
-0.0353673
-0.0335233
-0.0335231
-0.035367
-0.0357044
-0.0333853
-0.0313837
-0.0321867
-0.0348762
-0.0371394
-0.0374436
-0.034084
-0.0264838
-0.0189013
-0.0194986
-0.0327389
-0.0533324
-0.0698654
-0.0727671
-0.0605624
-0.0386535
-0.0156431
0.00295057
0.0172363
0.0316372
0.0486051
0.0652913
0.0759124
0.075049
0.060826
0.035657
0.00591334
-0.0218294
-0.0424243
-0.0534482
-0.0558532
-0.0516547
-0.0434828
-0.0341601
-0.0253603
-0.0177475
-0.0120639
-0.00809583
-0.00516042
-0.00343722
-0.0023715
-0.00140439
-0.000919827
-0.000670042
-0.000348375
-0.000247612
-0.000144308
-0.000138174
-0.000302203
-0.000626298
-0.00119781
-0.00166122
-0.00237095
-0.00343736
-0.00477802
-0.00718309
-0.0108325
-0.015695
-0.0226106
-0.0314009
-0.0413109
-0.0517718
-0.0606242
-0.0647403
-0.0616358
-0.0491408
-0.0266313
0.00283865
0.0338434
0.0599043
0.075044
0.0768668
0.0673576
0.0514575
0.0339333
0.016476
-0.00287787
-0.0260903
-0.0514572
-0.0730376
-0.0834595
-0.0794469
-0.0648575
-0.0482572
-0.037155
-0.0344938
-0.0378566
-0.0424026
-0.0451906
-0.0465219
-0.0469138
-0.0458963
-0.0441242
-0.0436176
-0.0447548
-0.0458305
-0.0460044
-0.0460042
-0.0458302
-0.0447548
-0.0436178
-0.0441245
-0.0458963
-0.0469134
-0.0465213
-0.0451901
-0.0424028
-0.0378575
-0.0344947
-0.0371551
-0.0482565
-0.0648566
-0.0794465
-0.0834594
-0.0730375
-0.0514568
-0.0260897
-0.00287708
0.0164765
0.0339333
0.0514573
0.0673577
0.0768675
0.0750449
0.0599052
0.0338438
0.00283858
-0.026632
-0.0491417
-0.0616366
-0.0647409
-0.0606245
-0.0517716
-0.0413105
-0.0314006
-0.0226101
-0.0156945
-0.0108321
-0.00718269
-0.00477762
-0.00343722
-0.00237086
-0.00166114
-0.00119778
-0.000626165
-0.000302073
-0.000138154
-0.000314038
-0.000872547
-0.00143098
-0.00202802
-0.0026716
-0.00369905
-0.00516074
-0.00718309
-0.0103186
-0.0145993
-0.020375
-0.0284165
-0.0383859
-0.0495939
-0.061184
-0.0706128
-0.0746424
-0.0708979
-0.0572628
-0.0335088
-0.00310455
0.0283749
0.0547213
0.0706628
0.0739306
0.0665492
0.0527118
0.0354812
0.0151267
-0.009384
-0.0371413
-0.0646244
-0.0855035
-0.0937684
-0.0888371
-0.0772435
-0.0660898
-0.0580933
-0.0535037
-0.0522451
-0.0532332
-0.0549383
-0.0574428
-0.0604124
-0.0615607
-0.0594143
-0.0564519
-0.0559868
-0.0581516
-0.0603077
-0.0603076
-0.0581515
-0.055987
-0.0564522
-0.0594146
-0.0615607
-0.0604119
-0.0574424
-0.0549383
-0.0532339
-0.0522462
-0.0535047
-0.0580935
-0.066089
-0.0772423
-0.0888364
-0.0937684
-0.0855036
-0.0646241
-0.0371407
-0.00938316
0.0151275
0.0354814
0.0527116
0.066549
0.073931
0.0706636
0.0547221
0.0283754
-0.00310455
-0.0335093
-0.0572637
-0.0708988
-0.0746429
-0.0706131
-0.0611839
-0.0495934
-0.0383853
-0.0284159
-0.0203743
-0.0145989
-0.0103183
-0.00718269
-0.00516042
-0.0036988
-0.00267138
-0.00202795
-0.00143098
-0.00087256
-0.000314056
-0.000394133
-0.00125815
-0.00216721
-0.00317171
-0.00444967
-0.00604967
-0.00809612
-0.0108325
-0.0145993
-0.0197681
-0.0268511
-0.0361377
-0.0473307
-0.0597464
-0.0720302
-0.081599
-0.0852785
-0.0807239
-0.0661382
-0.0417018
-0.011219
0.0196683
0.0453151
0.061471
0.0662595
0.0616616
0.0508316
0.0345977
0.0119873
-0.0168801
-0.048437
-0.0773115
-0.0966899
-0.102137
-0.0963438
-0.0880867
-0.0826224
-0.0778716
-0.071619
-0.0658078
-0.0629043
-0.0628627
-0.0657361
-0.0707277
-0.0741679
-0.0723928
-0.0675389
-0.0653292
-0.0679757
-0.0716517
-0.0716518
-0.0679759
-0.0653295
-0.0675392
-0.0723929
-0.0741677
-0.0707272
-0.0657359
-0.0628632
-0.0629054
-0.065809
-0.0716198
-0.0778716
-0.0826214
-0.0880852
-0.0963428
-0.102137
-0.0966903
-0.0773113
-0.0484364
-0.0168794
0.0119878
0.0345978
0.050831
0.061661
0.0662594
0.0614714
0.0453156
0.0196688
-0.0112189
-0.0417022
-0.066139
-0.0807246
-0.085279
-0.0815993
-0.0720302
-0.059746
-0.0473301
-0.0361371
-0.0268504
-0.0197675
-0.0145989
-0.0108321
-0.00809583
-0.00604943
-0.00444941
-0.00317148
-0.00216707
-0.00125806
-0.000394104
-0.000625004
-0.00208583
-0.0036014
-0.00524632
-0.00726344
-0.00937844
-0.0120643
-0.015695
-0.020375
-0.0268511
-0.035404
-0.0459144
-0.0584516
-0.0720567
-0.0848246
-0.0944116
-0.0975899
-0.0918352
-0.0760095
-0.0509684
-0.0207726
0.00906731
0.0336563
0.0497882
0.0563032
0.0549978
0.0475979
0.0326849
0.00842666
-0.0239226
-0.0587413
-0.0885143
-0.105889
-0.108486
-0.102398
-0.097582
-0.097151
-0.0953062
-0.0878324
-0.0779327
-0.0708863
-0.0683441
-0.0704884
-0.0763799
-0.0815983
-0.0807403
-0.0748378
-0.0709721
-0.0732927
-0.0776739
-0.0776742
-0.0732932
-0.0709726
-0.0748379
-0.0807401
-0.0815978
-0.0763795
-0.0704885
-0.0683451
-0.0708877
-0.0779338
-0.0878329
-0.0953061
-0.0971501
-0.0975805
-0.102397
-0.108486
-0.10589
-0.0885145
-0.058741
-0.0239223
0.00842681
0.0326847
0.0475971
0.0549967
0.0563026
0.0497884
0.0336569
0.00906788
-0.0207723
-0.0509685
-0.0760101
-0.091836
-0.0975905
-0.094412
-0.0848247
-0.0720564
-0.058451
-0.0459138
-0.0354034
-0.0268504
-0.0203743
-0.0156945
-0.0120639
-0.00937814
-0.00726325
-0.00524611
-0.00360119
-0.00208567
-0.000624929
-0.00109998
-0.00355935
-0.00591257
-0.00823235
-0.0110437
-0.0140062
-0.0177481
-0.0226106
-0.0284165
-0.0361377
-0.0459144
-0.0574873
-0.0712873
-0.0859009
-0.0989045
-0.108271
-0.110716
-0.103582
-0.0866373
-0.0614642
-0.0319345
-0.0032856
0.0202195
0.036523
0.0454852
0.0484331
0.0451879
0.0325388
0.00807737
-0.0262408
-0.0632418
-0.0930387
-0.107978
-0.108397
-0.103118
-0.101846
-0.105567
-0.106463
-0.0987977
-0.0859896
-0.0752434
-0.0700676
-0.0708037
-0.0764759
-0.082733
-0.0832754
-0.0774941
-0.072466
-0.073811
-0.0780263
-0.0780266
-0.0738117
-0.0724665
-0.0774941
-0.083275
-0.0827325
-0.0764758
-0.0708045
-0.0700692
-0.0752452
-0.0859906
-0.0987978
-0.106463
-0.105566
-0.101845
-0.103116
-0.108397
-0.107979
-0.0930392
-0.0632417
-0.0262405
0.00807728
0.0325384
0.045187
0.0484318
0.0454842
0.0365227
0.0202198
-0.0032852
-0.0319344
-0.0614644
-0.086638
-0.103583
-0.110717
-0.108271
-0.0989047
-0.0859008
-0.0712868
-0.0574865
-0.0459138
-0.0361371
-0.0284159
-0.0226101
-0.0177475
-0.0140057
-0.0110433
-0.00823209
-0.00591247
-0.00355931
-0.00109994
-0.00161112
-0.00510267
-0.00857499
-0.0120942
-0.0161662
-0.0204199
-0.0253607
-0.0314009
-0.0383859
-0.0473307
-0.0584516
-0.0712873
-0.0860746
-0.101072
-0.113656
-0.122009
-0.12289
-0.113816
-0.0955116
-0.0702198
-0.0414098
-0.0141501
0.00786689
0.0242048
0.0357869
0.0431065
0.0440281
0.0343182
0.0110688
-0.0236298
-0.0611106
-0.0893951
-0.101246
-0.100147
-0.0962867
-0.0978501
-0.104185
-0.107117
-0.0998534
-0.0850768
-0.0712107
-0.0634735
-0.0622428
-0.0664184
-0.0726169
-0.0746297
-0.070018
-0.0645242
-0.0645671
-0.0679356
-0.0679359
-0.0645679
-0.0645246
-0.0700178
-0.0746291
-0.0726164
-0.0664187
-0.062244
-0.0634752
-0.0712123
-0.0850774
-0.099853
-0.107116
-0.104184
-0.0978491
-0.0962858
-0.100147
-0.101247
-0.0893959
-0.061111
-0.0236299
0.0110683
0.0343171
0.0440267
0.0431049
0.0357854
0.0242041
0.00786696
-0.0141497
-0.0414097
-0.0702201
-0.0955122
-0.113817
-0.122892
-0.12201
-0.113656
-0.101072
-0.0860745
-0.0712867
-0.058451
-0.0473301
-0.0383853
-0.0314006
-0.0253603
-0.0204195
-0.0161659
-0.0120938
-0.00857477
-0.00510255
-0.00161104
-0.00236682
-0.00723451
-0.0121614
-0.0171997
-0.0225634
-0.0280855
-0.0341605
-0.0413109
-0.0495939
-0.0597464
-0.0720567
-0.0859009
-0.101072
-0.11591
-0.12773
-0.134416
-0.13299
-0.12148
-0.101236
-0.075163
-0.0466351
-0.0205237
0.000323019
0.0172393
0.031728
0.0431859
0.0480787
0.0416552
0.0203642
-0.0136547
-0.0500923
-0.0757749
-0.0849265
-0.083749
-0.0822362
-0.0863026
-0.0943367
-0.0988564
-0.0924935
-0.076818
-0.0608844
-0.0511247
-0.0476698
-0.049268
-0.0541921
-0.0572775
-0.0544524
-0.049251
-0.0481136
-0.0503497
-0.0503499
-0.048114
-0.0492512
-0.054452
-0.0572768
-0.0541919
-0.0492687
-0.0476713
-0.0511263
-0.0608854
-0.0768181
-0.0924926
-0.0988551
-0.0943355
-0.0863018
-0.0822355
-0.0837484
-0.0849267
-0.075776
-0.0500934
-0.0136553
0.0203634
0.0416538
0.048077
0.0431843
0.0317265
0.0172383
0.000322854
-0.0205233
-0.0466349
-0.0751634
-0.101237
-0.121481
-0.132991
-0.134418
-0.127731
-0.115911
-0.101072
-0.0859008
-0.0720564
-0.059746
-0.0495934
-0.0413105
-0.0341601
-0.0280852
-0.0225632
-0.0171995
-0.0121612
-0.00723436
-0.00236674
-0.00327987
-0.00984722
-0.0163708
-0.0227962
-0.0293552
-0.0362013
-0.043483
-0.0517718
-0.061184
-0.0720302
-0.0848246
-0.0989045
-0.113656
-0.12773
-0.138164
-0.142307
-0.137987
-0.123862
-0.101422
-0.0743531
-0.0462175
-0.0211712
-0.000868227
0.017199
0.0346403
0.050019
0.0589977
0.0561948
0.0374032
0.00540244
-0.0281245
-0.0503101
-0.0576713
-0.0578928
-0.0596576
-0.0665134
-0.076211
-0.0822274
-0.0772938
-0.0621906
-0.0459201
-0.0353137
-0.0299891
-0.0286543
-0.0314553
-0.0349894
-0.0341685
-0.0301024
-0.0284436
-0.029748
-0.029748
-0.0284435
-0.0301022
-0.0341681
-0.034989
-0.0314555
-0.0286554
-0.0299909
-0.0353151
-0.0459204
-0.06219
-0.0772926
-0.0822259
-0.0762096
-0.0665125
-0.0596569
-0.0578919
-0.0576708
-0.0503108
-0.0281259
0.00540143
0.0374025
0.0561936
0.058996
0.0500175
0.0346391
0.017198
-0.00086867
-0.0211709
-0.0462173
-0.0743536
-0.101423
-0.123863
-0.137989
-0.142309
-0.138165
-0.127731
-0.113656
-0.0989046
-0.0848247
-0.0720302
-0.0611839
-0.0517716
-0.0434828
-0.0362011
-0.0293551
-0.0227962
-0.0163708
-0.00984725
-0.00327987
-0.00396472
-0.0119413
-0.019906
-0.0276297
-0.0354572
-0.0435389
-0.0516545
-0.0606242
-0.0706128
-0.081599
-0.0944116
-0.108271
-0.122009
-0.134416
-0.142307
-0.142835
-0.134904
-0.117625
-0.0926048
-0.0645736
-0.0372144
-0.0134351
0.00625942
0.0247613
0.0439681
0.0622183
0.0744162
0.074381
0.0579154
0.0292582
0.000420689
-0.0176457
-0.0238473
-0.0260619
-0.0313842
-0.0413125
-0.0525916
-0.0595134
-0.0559381
-0.0425981
-0.0275673
-0.0171578
-0.0104785
-0.00632028
-0.00636736
-0.00936353
-0.0102351
-0.00800203
-0.00673577
-0.00758067
-0.00758036
-0.00673506
-0.00800137
-0.0102347
-0.00936359
-0.00636799
-0.00632167
-0.0104802
-0.0171586
-0.0275667
-0.0425965
-0.0559364
-0.0595117
-0.0525898
-0.041311
-0.0313832
-0.0260609
-0.0238465
-0.0176461
0.000419114
0.0292565
0.0579144
0.07438
0.0744147
0.0622168
0.043967
0.0247607
0.00625912
-0.013435
-0.0372141
-0.0645737
-0.0926055
-0.117626
-0.134906
-0.142837
-0.142309
-0.134418
-0.12201
-0.108271
-0.0944119
-0.0815993
-0.0706131
-0.0606245
-0.0516547
-0.0435391
-0.0354573
-0.0276297
-0.0199061
-0.0119414
-0.00396472
-0.00444755
-0.0133021
-0.0221694
-0.0307374
-0.0391567
-0.0476529
-0.0558526
-0.0647403
-0.0746424
-0.0852785
-0.0975899
-0.110716
-0.12289
-0.13299
-0.137987
-0.134904
-0.123328
-0.102812
-0.0753757
-0.0466244
-0.0200901
0.00252921
0.0215241
0.039808
0.0598975
0.0799583
0.0937737
0.0947538
0.0798977
0.0551212
0.0313561
0.0167785
0.0106598
0.00562033
-0.00421894
-0.0183557
-0.0316827
-0.0391978
-0.0371325
-0.0267953
-0.0143916
-0.00504343
0.00230139
0.00878167
0.0119329
0.0106917
0.00884121
0.00884896
0.0089723
0.00819798
0.0081985
0.00897347
0.00884993
0.00884135
0.010691
0.0119316
0.00878011
0.00230003
-0.00504364
-0.0143902
-0.026793
-0.0371305
-0.0391963
-0.0316811
-0.018354
-0.00421752
0.00562134
0.0106605
0.0167782
0.0313546
0.0551193
0.0798964
0.0947532
0.0937731
0.0799574
0.0598969
0.0398079
0.0215245
0.00252975
-0.0200896
-0.0466241
-0.075376
-0.102813
-0.12333
-0.134906
-0.137989
-0.132991
-0.122892
-0.110717
-0.0975905
-0.085279
-0.0746429
-0.0647409
-0.0558531
-0.0476536
-0.0391572
-0.0307378
-0.0221697
-0.0133022
-0.00444759
-0.00452852
-0.0132158
-0.0218013
-0.0300794
-0.0378168
-0.0457276
-0.0534474
-0.0616358
-0.0708979
-0.0807239
-0.0918352
-0.103582
-0.113816
-0.12148
-0.123862
-0.117625
-0.102812
-0.0798808
-0.0513109
-0.0228957
0.00199562
0.0225903
0.0400104
0.0572718
0.0773644
0.0978557
0.111487
0.112147
0.0988513
0.0785168
0.0600243
0.0488082
0.0427349
0.034719
0.0196765
0.000588141
-0.0149556
-0.0228457
-0.0226575
-0.0163596
-0.0075972
-6.02472e-05
0.00698978
0.014891
0.0212823
0.0227095
0.0205048
0.0181241
0.0167815
0.0160284
0.0160289
0.0167827
0.0181251
0.0205047
0.0227083
0.0212805
0.0148894
0.0069889
-5.98267e-05
-0.00759529
-0.016357
-0.0226553
-0.0228442
-0.0149543
0.000589933
0.0196783
0.0347201
0.0427352
0.0488076
0.060023
0.078515
0.0988498
0.112147
0.111488
0.0978558
0.0773643
0.0572721
0.0400112
0.0225913
0.00199651
-0.0228951
-0.0513107
-0.0798815
-0.102813
-0.117626
-0.123863
-0.121481
-0.113817
-0.103583
-0.091836
-0.0807246
-0.0708987
-0.0616366
-0.0534482
-0.0457285
-0.0378176
-0.0300802
-0.021802
-0.0132163
-0.0045287
-0.00359657
-0.0102343
-0.0169229
-0.0235933
-0.0295717
-0.0359784
-0.0424232
-0.0491408
-0.0572628
-0.0661382
-0.0760095
-0.0866373
-0.0955116
-0.101236
-0.101422
-0.0926048
-0.0753757
-0.0513109
-0.0231073
0.00369401
0.0255848
0.0427136
0.0573547
0.0725284
0.091163
0.110071
0.121692
0.121102
0.109365
0.0936126
0.080636
0.0735025
0.068378
0.057878
0.0378466
0.0143159
-0.00281119
-0.0107162
-0.012495
-0.0104214
-0.00543783
3.49617e-05
0.00612198
0.0147451
0.0242882
0.0289249
0.0268834
0.0224137
0.0200182
0.0197511
0.0197514
0.020019
0.0224143
0.026883
0.0289233
0.0242862
0.0147436
0.00612175
3.6084e-05
-0.00543559
-0.0104187
-0.0124925
-0.0107146
-0.00281007
0.0143174
0.0378485
0.0578793
0.0683778
0.0735012
0.0806343
0.0936108
0.109363
0.121101
0.121692
0.110072
0.0911634
0.0725289
0.0573557
0.042715
0.0255862
0.00369526
-0.0231065
-0.0513107
-0.075376
-0.0926056
-0.101423
-0.101237
-0.0955122
-0.0866379
-0.0760101
-0.0661389
-0.0572637
-0.0491417
-0.0424242
-0.0359794
-0.0295726
-0.0235943
-0.0169236
-0.0102348
-0.00359681
-0.00172543
-0.00460807
-0.00767723
-0.0110215
-0.0138868
-0.0175853
-0.0218284
-0.0266313
-0.0335088
-0.0417018
-0.0509684
-0.0614642
-0.0702198
-0.075163
-0.0743531
-0.0645736
-0.0466244
-0.0228957
0.00369401
0.0279555
0.0461627
0.0594535
0.0711581
0.0839166
0.100136
0.11607
0.124574
0.122058
0.11136
0.0996373
0.092175
0.0897281
0.0860768
0.0733816
0.0491129
0.0223695
0.0043611
-0.00355449
-0.00727389
-0.00896518
-0.00732992
-0.00380447
0.00111824
0.0101316
0.022552
0.0304419
0.0290124
0.0233189
0.0209771
0.0220382
0.0220382
0.0209771
0.0233187
0.0290115
0.0304402
0.0225501
0.0101304
0.00111862
-0.00380282
-0.00732763
-0.0089627
-0.00727157
-0.00355286
0.0043619
0.0223702
0.0491141
0.0733824
0.086076
0.0897258
0.0921725
0.0996353
0.111358
0.122057
0.124574
0.116071
0.100137
0.0839174
0.0711593
0.0594551
0.0461646
0.0279573
0.00369526
-0.0228951
-0.0466242
-0.0645738
-0.0743536
-0.0751634
-0.0702201
-0.0614644
-0.0509685
-0.0417021
-0.0335093
-0.0266319
-0.0218293
-0.0175862
-0.0138877
-0.0110224
-0.0076779
-0.00460851
-0.00172568
0.000984701
0.00336175
0.00536421
0.00668006
0.0078676
0.0076316
0.00591376
0.00283865
-0.00310455
-0.011219
-0.0207726
-0.0319345
-0.0414098
-0.0466351
-0.0462175
-0.0372144
-0.0200901
0.00199562
0.0255848
0.0461627
0.0601121
0.0694293
0.0782398
0.0887442
0.102552
0.115503
0.121206
0.117229
0.107996
0.100847
0.0999472
0.103273
0.101837
0.0878405
0.0610569
0.032798
0.0142858
0.00579151
-0.000124039
-0.00532051
-0.00699516
-0.00566731
-0.00227957
0.00642493
0.020546
0.0307793
0.0300724
0.024204
0.0231212
0.0262399
0.0262396
0.0231203
0.0242029
0.0300711
0.0307778
0.0205447
0.00642455
-0.00227852
-0.00566522
-0.00699284
-0.00531831
-0.000121846
0.00579335
0.0142867
0.0327982
0.0610571
0.0878407
0.101836
0.10327
0.099944
0.100844
0.107995
0.117229
0.121206
0.115504
0.102553
0.0887451
0.0782408
0.0694307
0.0601137
0.0461646
0.0255862
0.00199649
-0.0200896
-0.0372141
-0.0462174
-0.0466349
-0.0414098
-0.0319344
-0.0207723
-0.0112189
-0.00310454
0.00283859
0.00591335
0.00763109
0.00786708
0.00667943
0.00536377
0.00336146
0.000984519
0.00409076
0.0124246
0.0201066
0.0264875
0.0318462
0.0350893
0.0356568
0.0338434
0.0283749
0.0196683
0.00906731
-0.0032856
-0.0141501
-0.0205237
-0.0211712
-0.0134351
0.00252921
0.0225903
0.0427136
0.0594535
0.0694293
0.0751788
0.0815083
0.0902724
0.101887
0.111909
0.114971
0.109712
0.102114
0.0998775
0.106058
0.115396
0.116505
0.102424
0.0753419
0.0473555
0.0286683
0.0191619
0.0110485
0.00272036
-0.00214493
-0.00302246
-0.00125054
0.00640291
0.0206575
0.0320738
0.0323794
0.027592
0.0287291
0.0341988
0.0341983
0.0287276
0.02759
0.0323775
0.0320725
0.0206571
0.00640368
-0.00124861
-0.00301993
-0.00214253
0.00272245
0.0110506
0.019164
0.0286695
0.0473554
0.0753412
0.102423
0.116503
0.115393
0.106054
0.0998748
0.102113
0.109712
0.114972
0.11191
0.101888
0.0902729
0.0815089
0.0751797
0.0694307
0.0594551
0.042715
0.0225913
0.00252972
-0.013435
-0.021171
-0.0205233
-0.0141498
-0.00328523
0.00906786
0.0196688
0.0283754
0.0338438
0.035657
0.0350895
0.0318464
0.0264875
0.0201067
0.0124246
0.0040907
0.00671938
0.0200486
0.0325687
0.0433334
0.0522398
0.0584295
0.0608252
0.0599043
0.0547213
0.0453151
0.0336563
0.0202195
0.00786689
0.000323019
-0.000868227
0.00625942
0.0215241
0.0400104
0.0573547
0.0711581
0.0782398
0.0815083
0.0862603
0.0938897
0.103352
0.110262
0.110439
0.103506
0.0970462
0.0991717
0.111588
0.125766
0.128905
0.115502
0.0897003
0.0629979
0.0440463
0.0329363
0.0223599
0.0108804
0.00271679
-0.000478134
-0.000593458
0.00493839
0.0175387
0.0290254
0.0307778
0.0281345
0.031793
0.0392622
0.0392616
0.0317913
0.028132
0.0307755
0.0290243
0.0175393
0.00494047
-0.000590524
-0.000475147
0.00271926
0.0108824
0.022362
0.0329385
0.0440477
0.0629977
0.0896988
0.1155
0.128904
0.125764
0.111585
0.0991691
0.097045
0.103506
0.11044
0.110263
0.103353
0.0938904
0.0862608
0.0815089
0.0782408
0.0711593
0.0573557
0.0400112
0.0215245
0.0062591
-0.000868704
0.000322813
0.00786693
0.0202198
0.0336568
0.0453156
0.054722
0.0599052
0.0608259
0.0584303
0.0522406
0.043334
0.0325692
0.020049
0.00671946
0.00821006
0.0242038
0.0392981
0.0524611
0.0632563
0.0712752
0.075048
0.075044
0.0706628
0.061471
0.0497882
0.036523
0.0242048
0.0172393
0.017199
0.0247613
0.039808
0.0572718
0.0725284
0.0839166
0.0887442
0.0902724
0.0938897
0.100533
0.107826
0.111604
0.108622
0.0995209
0.0935796
0.0990628
0.115944
0.132917
0.137004
0.124362
0.100392
0.0750898
0.0554004
0.0418569
0.0281375
0.0130338
0.00113098
-0.00492574
-0.00771223
-0.00562873
0.00369792
0.0143694
0.01787
0.0178514
0.0235829
0.0321797
0.0321792
0.0235813
0.0178489
0.0178676
0.0143684
0.0036991
-0.00562573
-0.00770848
-0.00492236
0.00113346
0.0130357
0.0281393
0.0418588
0.0554015
0.0750894
0.10039
0.124359
0.137002
0.132916
0.115942
0.0990612
0.093579
0.0995218
0.108624
0.111606
0.107827
0.100534
0.0938904
0.090273
0.0887451
0.0839175
0.0725289
0.0572721
0.0398079
0.0247607
0.017198
0.0172382
0.024204
0.0365227
0.0497884
0.0614714
0.0706636
0.0750448
0.075049
0.0712763
0.0632574
0.0524621
0.039299
0.0242044
0.00821028
0.00801916
0.0234536
0.0383023
0.0516052
0.0625436
0.0712299
0.0759115
0.0768668
0.0739306
0.0662595
0.0563032
0.0454852
0.0357869
0.031728
0.0346403
0.0439681
0.0598975
0.0773644
0.091163
0.100136
0.102552
0.101887
0.103352
0.107826
0.111796
0.111122
0.103415
0.0909193
0.084503
0.0919019
0.111118
0.129061
0.133596
0.122241
0.100984
0.0779249
0.0582659
0.042789
0.0264154
0.00821239
-0.00712405
-0.0162054
-0.0220425
-0.0238745
-0.0183416
-0.00878325
-0.00343071
-0.000878076
0.00615076
0.0149401
0.0149396
0.00614945
-0.000880023
-0.00343248
-0.00878375
-0.0183401
-0.0238712
-0.0220383
-0.0162016
-0.00712138
0.00821417
0.0264168
0.0427902
0.0582664
0.0779242
0.100982
0.122238
0.133594
0.12906
0.111117
0.0919012
0.0845029
0.0909205
0.103417
0.111124
0.111798
0.107827
0.103353
0.101888
0.102553
0.100137
0.0911634
0.0773643
0.0598969
0.043967
0.0346391
0.0317265
0.0357854
0.0454842
0.0563026
0.0662593
0.073931
0.0768674
0.0759123
0.071231
0.0625446
0.0516063
0.0383032
0.0234542
0.00801939
0.00648581
0.0187317
0.0308356
0.0421659
0.0516981
0.0600559
0.0652909
0.0673576
0.0665492
0.0616616
0.0549978
0.0484331
0.0431065
0.0431859
0.050019
0.0622183
0.0799583
0.0978557
0.110071
0.11607
0.115503
0.111909
0.110262
0.111604
0.111122
0.104582
0.090957
0.0746114
0.0671602
0.0750399
0.0946409
0.112305
0.117152
0.107503
0.0896426
0.0698978
0.0517121
0.0356637
0.0179266
-0.00228904
-0.0204985
-0.0326119
-0.0413194
-0.0464634
-0.0442628
-0.0359597
-0.0292066
-0.0246252
-0.0170007
-0.00864078
-0.00864121
-0.0170017
-0.0246264
-0.0292072
-0.0359592
-0.0442611
-0.0464604
-0.0413154
-0.032608
-0.0204956
-0.00228735
0.0179274
0.0356636
0.0517112
0.0698962
0.0896402
0.1075
0.117149
0.112303
0.094641
0.0750403
0.0671607
0.0746126
0.0909594
0.104584
0.111124
0.111605
0.110263
0.11191
0.115504
0.116071
0.110072
0.0978558
0.0799574
0.0622168
0.0500174
0.0431842
0.0431048
0.0484318
0.0549967
0.0616609
0.066549
0.0673577
0.0652913
0.0600565
0.0516987
0.0421665
0.0308361
0.0187321
0.00648598
0.00429524
0.0121772
0.0204886
0.0289058
0.0361913
0.0433982
0.0486051
0.0514575
0.0527118
0.0508316
0.0475979
0.0451879
0.0440281
0.0480787
0.0589977
0.0744162
0.0937737
0.111487
0.121692
0.124574
0.121206
0.114971
0.110439
0.108622
0.103415
0.090957
0.0720463
0.0528447
0.0445488
0.0522541
0.0715935
0.0890308
0.0946579
0.0872386
0.0736058
0.0587239
0.0441685
0.0296839
0.0124308
-0.00849742
-0.0289622
-0.0438247
-0.05453
-0.0616004
-0.0619681
-0.0554868
-0.0485096
-0.0427898
-0.0350278
-0.0273299
-0.0273303
-0.0350287
-0.04279
-0.0485085
-0.0554848
-0.0619659
-0.061598
-0.0545271
-0.0438214
-0.0289593
-0.00849575
0.0124309
0.0296825
0.0441659
0.0587209
0.073603
0.0872359
0.0946555
0.0890294
0.0715935
0.052255
0.0445499
0.052846
0.0720481
0.0909594
0.103417
0.108624
0.11044
0.114972
0.121206
0.124574
0.121692
0.111488
0.0937731
0.0744147
0.0589959
0.0480769
0.0440266
0.0451869
0.0475971
0.050831
0.0527116
0.0514573
0.0486051
0.0433983
0.0361912
0.0289058
0.0204886
0.0121771
0.00429527
0.00262552
0.00709697
0.0121182
0.0176307
0.0223131
0.0275412
0.0316374
0.0339333
0.0354812
0.0345977
0.0326849
0.0325388
0.0343182
0.0416552
0.0561948
0.074381
0.0947538
0.112147
0.121102
0.122058
0.117229
0.109712
0.103506
0.0995209
0.0909193
0.0746114
0.0528447
0.03278
0.0247581
0.0332222
0.0534246
0.0717224
0.0787392
0.074003
0.0654898
0.0571122
0.0482993
0.0372902
0.0218947
0.000996156
-0.0213637
-0.0385391
-0.0501907
-0.0580491