/*--------------------------------*- C++ -*----------------------------------*\
  =========                 |
  \\      /  F ield         | OpenFOAM: The Open Source CFD Toolbox
   \\    /   O peration     | Website:  https://openfoam.org
    \\  /    A nd           | Version:  10
     \\/     M anipulation  |
\*---------------------------------------------------------------------------*/
FoamFile
{
    format      ascii;
    class       volScalarField;
    location    "17";
    object      h_0;
}
// * * * * * * * * * * * * * * * * * * * * * * * * * * * * * * * * * * * * * //

dimensions      [0 1 0 0 0 0 0];

internalField   nonuniform List<scalar> 
10000
(
0.000505026
0.00166406
0.0032574
0.00551803
0.00855293
0.0122408
0.0161428
0.0194961
0.0213535
0.020871
0.0176477
0.0119494
0.00467067
-0.00297656
-0.00989325
-0.015412
-0.0193555
-0.0218644
-0.0231677
-0.0234759
-0.0230461
-0.0223145
-0.0219207
-0.022531
-0.0245296
-0.0277576
-0.031464
-0.0345068
-0.0357083
-0.0342084
-0.0296882
-0.0224086
-0.01309
-0.00270217
0.00775714
0.0174371
0.0257359
0.0323289
0.0371423
0.0402942
0.0420257
0.0426371
0.0424389
0.0417174
0.0407174
0.0396348
0.0386185
0.0377752
0.0371769
0.0368676
0.0368677
0.0371772
0.0377757
0.0386193
0.0396359
0.0407188
0.0417192
0.0424411
0.0426399
0.0420288
0.0402976
0.0371459
0.0323323
0.0257388
0.0174392
0.00775805
-0.00270269
-0.0130921
-0.022412
-0.0296925
-0.034213
-0.0357125
-0.0345101
-0.0314659
-0.0277582
-0.0245292
-0.0225301
-0.0219197
-0.0223138
-0.0230457
-0.0234758
-0.0231681
-0.0218652
-0.0193567
-0.0154134
-0.00989455
-0.00297726
0.00467091
0.0119506
0.0176496
0.0208731
0.0213553
0.0194973
0.0161432
0.0122407
0.0085525
0.0055175
0.00325693
0.00166375
0.000504915
0.00166406
0.00543117
0.0104586
0.0173629
0.0263304
0.0368516
0.047543
0.0562404
0.0604809
0.0582968
0.0490044
0.0335673
0.0142833
-0.00606909
-0.0251527
-0.0415693
-0.0547614
-0.0645691
-0.0708864
-0.0737105
-0.0735025
-0.0714789
-0.069464
-0.0692531
-0.0718095
-0.0767539
-0.0824229
-0.0864416
-0.0865168
-0.081116
-0.0698168
-0.0532881
-0.0329954
-0.010786
0.0115071
0.0323554
0.0506859
0.0659109
0.0778689
0.0867225
0.0928436
0.0967111
0.0988321
0.0996875
0.0997009
0.0992252
0.0985397
0.0978552
0.0973206
0.0970305
0.0970308
0.0973213
0.0978564
0.0985415
0.0992276
0.099704
0.0996912
0.0988365
0.0967162
0.0928492
0.0867286
0.077875
0.0659166
0.0506908
0.0323587
0.0115084
-0.0107874
-0.0329994
-0.0532946
-0.0698252
-0.0811251
-0.0865254
-0.0864484
-0.0824272
-0.0767556
-0.0718091
-0.0692517
-0.0694626
-0.0714783
-0.0735029
-0.0737117
-0.0708882
-0.0645713
-0.054764
-0.041572
-0.0251551
-0.0060703
0.014284
0.0335703
0.0490091
0.0583021
0.0604857
0.0562438
0.0475446
0.0368516
0.0263294
0.0173615
0.0104574
0.0054303
0.00166375
0.0032574
0.0104586
0.01957
0.031339
0.0456729
0.0613444
0.0759746
0.0864785
0.0899526
0.0846779
0.070722
0.0497778
0.0243366
-0.00325955
-0.031284
-0.058426
-0.0832752
-0.104073
-0.119064
-0.127278
-0.129174
-0.12662
-0.122132
-0.117799
-0.114531
-0.111948
-0.108853
-0.103898
-0.0961217
-0.0851862
-0.0713409
-0.0552308
-0.0376735
-0.0194846
-0.00137645
0.0160805
0.0324572
0.0474507
0.0608659
0.0726008
0.082634
0.0910137
0.0978442
0.103272
0.107468
0.110614
0.112886
0.11444
0.115402
0.11586
0.11586
0.115403
0.114442
0.112888
0.110617
0.107471
0.103275
0.0978473
0.0910169
0.0826372
0.0726037
0.0608685
0.0474528
0.0324586
0.0160811
-0.00137678
-0.019486
-0.037676
-0.0552345
-0.0713457
-0.0851917
-0.0961274
-0.103903
-0.108857
-0.111951
-0.114532
-0.1178
-0.122133
-0.126622
-0.129178
-0.127283
-0.119069
-0.104077
-0.0832779
-0.0584276
-0.0312847
-0.00325926
0.0243383
0.0497813
0.0707273
0.0846844
0.089959
0.0864835
0.0759776
0.0613453
0.0456721
0.0313373
0.0195682
0.0104573
0.00325693
0.00551803
0.0173629
0.031339
0.0479137
0.0662794
0.0842741
0.0988326
0.10694
0.106704
0.0979329
0.0818144
0.0599049
0.0332075
0.00209376
-0.0328673
-0.0698992
-0.105746
-0.136505
-0.159102
-0.172452
-0.177556
-0.176508
-0.17119
-0.162524
-0.150653
-0.135643
-0.118092
-0.0992331
-0.080608
-0.0635712
-0.0489204
-0.0367846
-0.0267509
-0.0181195
-0.0101668
-0.00233411
0.00568629
0.0139547
0.0223445
0.0306236
0.0385314
0.0458349
0.0523604
0.0580046
0.0627284
0.0665431
0.0694921
0.0716331
0.073023
0.073706
0.0737061
0.0730234
0.0716338
0.069493
0.0665442
0.0627295
0.0580057
0.0523615
0.0458357
0.0385319
0.0306237
0.0223441
0.013954
0.00568542
-0.0023349
-0.0101672
-0.0181193
-0.0267499
-0.0367831
-0.0489187
-0.0635698
-0.0806076
-0.0992341
-0.118094
-0.135647
-0.150657
-0.162529
-0.171195
-0.176514
-0.177562
-0.17246
-0.159109
-0.136511
-0.105749
-0.0698994
-0.0328652
0.00209695
0.0332111
0.0599088
0.0818189
0.0979384
0.10671
0.106946
0.098837
0.0842765
0.0662797
0.0479126
0.0313373
0.0173615
0.00551749
0.00855293
0.0263304
0.0456729
0.0662794
0.0863745
0.103123
0.11369
0.116458
0.111611
0.100562
0.0845415
0.0634409
0.0360066
0.00137107
-0.0392514
-0.0821119
-0.122167
-0.155194
-0.179359
-0.195223
-0.204327
-0.207521
-0.204343
-0.193781
-0.175608
-0.151182
-0.123243
-0.0950411
-0.0693935
-0.0481039
-0.0318452
-0.0203922
-0.01299
-0.00869343
-0.00659613
-0.00594248
-0.00615363
-0.00680911
-0.00761425
-0.00837033
-0.00895316
-0.00929817
-0.00938961
-0.0092505
-0.00893236
-0.00850444
-0.008043
-0.00762156
-0.00730264
-0.00713143
-0.00713157
-0.00730305
-0.00762223
-0.0080439
-0.00850552
-0.00893356
-0.00925176
-0.00939083
-0.00929927
-0.00895404
-0.0083709
-0.00761439
-0.00680873
-0.00615262
-0.00594074
-0.00659353
-0.00868989
-0.0129855
-0.0203869
-0.0318395
-0.0480985
-0.0693893
-0.0950391
-0.123244
-0.151186
-0.175615
-0.193789
-0.204351
-0.207529
-0.204335
-0.195231
-0.179367
-0.155201
-0.122171
-0.0821129
-0.0392488
0.00137613
0.0360122
0.0634458
0.0845456
0.100566
0.111615
0.116463
0.113695
0.103127
0.0863766
0.0662797
0.0456721
0.0263294
0.00855249
0.0122408
0.0368516
0.0613444
0.0842741
0.103123
0.115316
0.119575
0.116617
0.10844
0.0965076
0.0802661
0.0574592
0.026259
-0.012453
-0.0546026
-0.0947091
-0.128609
-0.155169
-0.175858
-0.192595
-0.205581
-0.212821
-0.211638
-0.200768
-0.181349
-0.156341
-0.129191
-0.102759
-0.0788986
-0.0585687
-0.0421623
-0.0297862
-0.0213853
-0.01675
-0.0154871
-0.0170151
-0.0206099
-0.0254895
-0.030908
-0.0362359
-0.0410098
-0.044948
-0.0479379
-0.0500039
-0.0512677
-0.0519066
-0.0521176
-0.0520882
-0.0519751
-0.0518899
-0.0518902
-0.051976
-0.0520896
-0.0521195
-0.051909
-0.0512704
-0.0500069
-0.0479409
-0.0449508
-0.0410122
-0.0362375
-0.0309086
-0.0254889
-0.020608
-0.0170119
-0.0154829
-0.016745
-0.0213797
-0.0297804
-0.0421567
-0.0585636
-0.0788944
-0.102757
-0.129191
-0.156344
-0.181355
-0.200776
-0.211647
-0.212829
-0.205588
-0.192601
-0.175863
-0.155175
-0.128615
-0.0947127
-0.0546029
-0.0124496
0.0262648
0.0574654
0.080271
0.096511
0.108443
0.116621
0.119579
0.11532
0.103127
0.0842765
0.0613453
0.0368516
0.0122407
0.0161428
0.047543
0.0759746
0.0988326
0.11369
0.119575
0.117727
0.110821
0.100814
0.0871156
0.0669544
0.0380981
0.0016973
-0.0373436
-0.0729398
-0.101281
-0.122573
-0.139957
-0.156512
-0.172547
-0.185288
-0.19117
-0.188635
-0.179058
-0.165444
-0.150522
-0.135781
-0.12166
-0.108171
-0.0954051
-0.0837005
-0.0735065
-0.0651571
-0.0587239
-0.0539947
-0.0505545
-0.0479161
-0.0456343
-0.0433804
-0.0409688
-0.0383442
-0.0355495
-0.0326869
-0.0298823
-0.0272611
-0.024932
-0.0229813
-0.0214713
-0.0204441
-0.0199247
-0.0199248
-0.0204442
-0.0214715
-0.0229816
-0.0249325
-0.0272618
-0.0298832
-0.0326881
-0.035551
-0.0383458
-0.0409705
-0.043382
-0.0456356
-0.0479169
-0.0505547
-0.0539941
-0.0587227
-0.0651554
-0.0735046
-0.0836986
-0.0954035
-0.108169
-0.121659
-0.13578
-0.150522
-0.165446
-0.179062
-0.188641
-0.191177
-0.185294
-0.172551
-0.156515
-0.13996
-0.122577
-0.101286
-0.072944
-0.0373449
0.00169986
0.0381035
0.0669604
0.0871202
0.100817
0.110823
0.11773
0.119579
0.113695
0.098837
0.0759776
0.0475445
0.0161432
0.0194961
0.0562404
0.0864785
0.10694
0.116458
0.116617
0.110821
0.101767
0.0891456
0.0699346
0.0416694
0.00597669
-0.031087
-0.0624811
-0.0844689
-0.0983413
-0.10865
-0.119528
-0.131675
-0.142228
-0.147704
-0.147358
-0.143793
-0.140602
-0.139725
-0.140836
-0.14246
-0.143198
-0.142246
-0.139357
-0.13455
-0.12785
-0.119239
-0.108754
-0.0965822
-0.0831217
-0.0689511
-0.0547378
-0.0411328
-0.0286772
-0.017745
-0.00852926
-0.00105528
0.00478071
0.00916907
0.0123426
0.0145402
0.0159791
0.0168355
0.0172323
0.0172326
0.0168363
0.0159805
0.0145421
0.012345
0.00917186
0.00478374
-0.00105219
-0.00852633
-0.0177425
-0.0286754
-0.041132
-0.0547381
-0.0689526
-0.0831243
-0.0965857
-0.108758
-0.119243
-0.127854
-0.134554
-0.13936
-0.142248
-0.143199
-0.14246
-0.140835
-0.139723
-0.1406
-0.143793
-0.14736
-0.147707
-0.142231
-0.131677
-0.119529
-0.108652
-0.0983447
-0.0844744
-0.0624867
-0.0310899
0.00597806
0.0416742
0.0699404
0.08915
0.10177
0.110823
0.116621
0.116463
0.106946
0.0864835
0.0562437
0.0194972
0.0213535
0.0604809
0.0899526
0.106704
0.111611
0.10844
0.100814
0.0891456
0.0704863
0.0421519
0.00607176
-0.0306248
-0.0598146
-0.0775487
-0.0857368
-0.0896834
-0.0940161
-0.0997442
-0.10427
-0.104618
-0.101182
-0.0980618
-0.0995965
-0.106985
-0.118239
-0.130503
-0.141766
-0.150925
-0.157276
-0.160216
-0.15918
-0.153838
-0.144367
-0.131488
-0.116334
-0.100224
-0.0844009
-0.0698514
-0.057222
-0.0468111
-0.0386327
-0.0325001
-0.0281088
-0.025114
-0.0231753
-0.0219943
-0.0213236
-0.020975
-0.0208132
-0.020753
-0.0207528
-0.0208127
-0.0209742
-0.0213225
-0.0219927
-0.0231733
-0.0251115
-0.0281057
-0.0324967
-0.038629
-0.0468073
-0.0572186
-0.0698487
-0.0843994
-0.100224
-0.116335
-0.131491
-0.144372
-0.153844
-0.159186
-0.160222
-0.15728
-0.150929
-0.141768
-0.130503
-0.118238
-0.106981
-0.0995915
-0.0980579
-0.10118
-0.104619
-0.104273
-0.0997456
-0.0940166
-0.0896847
-0.0857406
-0.077555
-0.0598214
-0.030629
0.00607234
0.0421565
0.070492
0.08915
0.100817
0.108443
0.111615
0.10671
0.089959
0.0604857
0.0213553
0.020871
0.0582968
0.0846779
0.0979329
0.100562
0.0965076
0.0871156
0.0699346
0.0421519
0.00571848
-0.0314359
-0.0600874
-0.0758368
-0.0808559
-0.0807072
-0.0800852
-0.0803281
-0.0794264
-0.0748616
-0.0675251
-0.0622868
-0.0638376
-0.0725998
-0.0853084
-0.0986557
-0.111307
-0.122953
-0.133
-0.140558
-0.144851
-0.145551
-0.143069
-0.138398
-0.132699
-0.126992
-0.121949
-0.117831
-0.11459
-0.111994
-0.109748
-0.107607
-0.105407
-0.103091
-0.100689
-0.0982904
-0.0960216
-0.0940129
-0.092389
-0.0912476
-0.0906595
-0.0906597
-0.091248
-0.0923897
-0.094014
-0.0960229
-0.0982919
-0.100691
-0.103093
-0.105408
-0.107608
-0.109748
-0.111994
-0.114589
-0.11783
-0.121947
-0.126991
-0.132699
-0.138399
-0.143071
-0.145554
-0.144854
-0.140562
-0.133004
-0.122955
-0.111308
-0.0986562
-0.0853073
-0.0725963
-0.0638321
-0.0622816
-0.0675226
-0.074862
-0.079428
-0.0803293
-0.080086
-0.0807089
-0.0808601
-0.0758437
-0.0600949
-0.0314405
0.0057188
0.0421565
0.0699404
0.0871202
0.096511
0.100566
0.0979384
0.0846843
0.0583021
0.0208731
0.0176477
0.0490044
0.070722
0.0818144
0.0845415
0.0802661
0.0669544
0.0416694
0.00607176
-0.0314359
-0.0604542
-0.0757554
-0.0794489
-0.0771201
-0.0733513
-0.0699743
-0.0660061
-0.0592369
-0.0499255
-0.042528
-0.0417723
-0.0476824
-0.0563129
-0.0646177
-0.0727033
-0.0815688
-0.0907722
-0.0991117
-0.105997
-0.111541
-0.116426
-0.12158
-0.127504
-0.134109
-0.140873
-0.147023
-0.151816
-0.154763
-0.15565
-0.154566
-0.151822
-0.147837
-0.143097
-0.138046
-0.133091
-0.128547
-0.124664
-0.121618
-0.119529
-0.118467
-0.118467
-0.119529
-0.121619
-0.124665
-0.128548
-0.133092
-0.138049
-0.1431
-0.147841
-0.151826
-0.154571
-0.155654
-0.154767
-0.15182
-0.147025
-0.140874
-0.134108
-0.127503
-0.121579
-0.116425
-0.111541
-0.105997
-0.0991124
-0.0907726
-0.0815688
-0.0727031
-0.0646178
-0.0563125
-0.0476802
-0.041768
-0.0425237
-0.0499234
-0.0592372
-0.0660071
-0.069975
-0.0733521
-0.0771221
-0.0794534
-0.0757625
-0.0604619
-0.0314405
0.00607234
0.0416742
0.0669604
0.080271
0.0845455
0.0818189
0.0707273
0.0490091
0.0176496
0.0119494
0.0335673
0.0497778
0.0599049
0.0634409
0.0574592
0.0380981
0.00597669
-0.0306248
-0.0600874
-0.0757554
-0.0791979
-0.0759188
-0.0703264
-0.0647673
-0.0596441
-0.0530941
-0.0437393
-0.0345371
-0.0304786
-0.0323009
-0.0360875
-0.0390635
-0.0424637
-0.048195
-0.0554432
-0.0622657
-0.068478
-0.0751097
-0.0830097
-0.0926979
-0.103856
-0.115316
-0.125842
-0.134433
-0.140489
-0.143958
-0.14515
-0.144548
-0.142751
-0.140254
-0.13748
-0.13473
-0.132181
-0.12996
-0.128098
-0.126628
-0.125533
-0.124814
-0.124456
-0.124456
-0.124814
-0.125532
-0.126628
-0.128098
-0.12996
-0.132181
-0.13473
-0.13748
-0.140255
-0.142753
-0.144551
-0.145153
-0.143961
-0.140493
-0.134436
-0.125844
-0.115317
-0.103856
-0.0926964
-0.0830077
-0.0751079
-0.0684769
-0.0622651
-0.0554426
-0.0481936
-0.0424622
-0.0390628
-0.0360872
-0.0322994
-0.0304756
-0.0345344
-0.0437385
-0.0530946
-0.0596446
-0.0647675
-0.0703271
-0.075921
-0.0792025
-0.0757625
-0.0600949
-0.030629
0.00597805
0.0381035
0.0574654
0.0634458
0.0599087
0.0497813
0.0335703
0.0119506
0.00467067
0.0142833
0.0243366
0.0332075
0.0360066
0.026259
0.0016973
-0.031087
-0.0598146
-0.0758368
-0.0794489
-0.0759188
-0.0694436
-0.0625461
-0.0569911
-0.0516194
-0.0430771
-0.0320428
-0.0242568
-0.0227019
-0.0240384
-0.0248541
-0.026278
-0.0303856
-0.0357818
-0.0396886
-0.0425335
-0.0468255
-0.0534362
-0.0619673
-0.0715925
-0.0807722
-0.0884314
-0.0943694
-0.0987382
-0.102045
-0.104919
-0.107733
-0.110732
-0.113993
-0.117374
-0.120798
-0.12405
-0.127038
-0.129646
-0.131824
-0.133556
-0.134832
-0.135676
-0.136091
-0.136092
-0.135676
-0.134832
-0.133556
-0.131824
-0.129645
-0.127038
-0.12405
-0.120798
-0.117373
-0.113992
-0.110731
-0.107732
-0.104918
-0.102045
-0.0987392
-0.0943709
-0.0884331
-0.0807736
-0.071593
-0.0619665
-0.0534346
-0.0468237
-0.0425323
-0.0396886
-0.0357819
-0.0303845
-0.0262763
-0.024853
-0.0240375
-0.0226999
-0.024254
-0.0320415
-0.043078
-0.0516205
-0.0569912
-0.0625458
-0.0694442
-0.075921
-0.0794534
-0.0758437
-0.0598214
-0.0310899
0.00169984
0.0262648
0.0360122
0.0332111
0.0243383
0.0142841
0.00467094
-0.00297656
-0.00606909
-0.00325955
0.00209376
0.00137107
-0.012453
-0.0373436
-0.0624811
-0.0775487
-0.0808559
-0.0771201
-0.0703264
-0.0625461
-0.0562828
-0.051628
-0.0439366
-0.0311937
-0.019841
-0.0163325
-0.0182701
-0.0201274
-0.0214409
-0.0242156
-0.0272427
-0.0276073
-0.0263315
-0.0275359
-0.0320146
-0.0376224
-0.0433282
-0.0482824
-0.0519364
-0.0551541
-0.0587023
-0.0629696
-0.0682942
-0.0745408
-0.0812769
-0.0882317
-0.0949323
-0.101125
-0.106673
-0.111398
-0.115408
-0.118619
-0.121196
-0.123123
-0.124527
-0.125419
-0.125861
-0.125861
-0.125419
-0.124527
-0.123124
-0.121196
-0.11862
-0.115409
-0.111399
-0.106673
-0.101125
-0.0949321
-0.088231
-0.0812757
-0.0745392
-0.0682922
-0.0629677
-0.0587009
-0.0551533
-0.0519364
-0.048283
-0.0433287
-0.0376222
-0.0320135
-0.027534
-0.0263303
-0.0276079
-0.027244
-0.0242158
-0.0214403
-0.0201268
-0.0182687
-0.0163291
-0.0198375
-0.0311931
-0.0439386
-0.0516296
-0.0562827
-0.0625458
-0.0703271
-0.0771221
-0.0808601
-0.077555
-0.0624867
-0.0373449
-0.0124496
0.00137611
0.00209694
-0.00325924
-0.00607026
-0.00297722
-0.00989325
-0.0251527
-0.031284
-0.0328673
-0.0392514
-0.0546026
-0.0729398
-0.0844689
-0.0857368
-0.0807072
-0.0733513
-0.0647673
-0.0569911
-0.051628
-0.0443978
-0.0307825
-0.016742
-0.0123329
-0.0166834
-0.0210438
-0.0221944
-0.0225894
-0.0226199
-0.0202647
-0.0165671
-0.0162383
-0.0200864
-0.0237381
-0.02581
-0.0274852
-0.0286454
-0.0303762
-0.0337691
-0.0383876
-0.0439732
-0.0501943
-0.0563344
-0.0621449
-0.0675304
-0.0721762
-0.0763662
-0.0799039
-0.0829827
-0.085608
-0.087774
-0.0896044
-0.090996
-0.0920812
-0.0927651
-0.0931249
-0.093125
-0.0927652
-0.0920813
-0.0909962
-0.0896046
-0.0877744
-0.0856085
-0.0829832
-0.0799045
-0.0763668
-0.0721768
-0.067531
-0.0621451
-0.0563343
-0.0501938
-0.043972
-0.038386
-0.0337673
-0.0303745
-0.0286444
-0.027485
-0.0258103
-0.0237386
-0.0200858
-0.0162361
-0.0165653
-0.020265
-0.0226213
-0.0225906
-0.0221955
-0.0210447
-0.0166819
-0.0123282
-0.0167375
-0.0307822
-0.0444003
-0.0516296
-0.0569912
-0.0647675
-0.0733521
-0.0807089
-0.0857406
-0.0844745
-0.072944
-0.0546029
-0.0392488
-0.0328652
-0.0312847
-0.0251551
-0.00989451
-0.015412
-0.0415693
-0.058426
-0.0698992
-0.0821119
-0.0947091
-0.101281
-0.0983413
-0.0896834
-0.0800852
-0.0699743
-0.0596441
-0.0516194
-0.0439366
-0.0307825
-0.0155878
-0.0104286
-0.0170192
-0.0237811
-0.0239993
-0.0211738
-0.0184803
-0.0153153
-0.0119259
-0.0116809
-0.0156296
-0.0182977
-0.017321
-0.0167655
-0.0172942
-0.018341
-0.0212897
-0.0251043
-0.0288117
-0.0326127
-0.03607
-0.0389596
-0.0417697
-0.0442127
-0.046446
-0.0486963
-0.050555
-0.0525279
-0.0540944
-0.0556565
-0.0568818
-0.0579548
-0.0587424
-0.0592878
-0.0595598
-0.0595598
-0.0592877
-0.0587422
-0.0579546
-0.0568815
-0.0556562
-0.0540941
-0.0525278
-0.0505548
-0.0486963
-0.046446
-0.0442129
-0.04177
-0.0389601
-0.0360705
-0.0326131
-0.0288117
-0.025104
-0.0212887
-0.0183396
-0.0172931
-0.0167647
-0.0173211
-0.018299
-0.0156298
-0.0116789
-0.0119239
-0.0153146
-0.0184807
-0.0211749
-0.0240018
-0.0237836
-0.0170181
-0.010423
-0.0155829
-0.0307822
-0.0439386
-0.0516205
-0.0596446
-0.069975
-0.080086
-0.0896847
-0.0983447
-0.101286
-0.0947127
-0.0821128
-0.0698994
-0.0584276
-0.041572
-0.0154134
-0.0193555
-0.0547614
-0.0832752
-0.105746
-0.122167
-0.128609
-0.122573
-0.10865
-0.0940161
-0.0803281
-0.0660061
-0.0530941
-0.0430771
-0.0311937
-0.016742
-0.0104286
-0.0173812
-0.0257338
-0.0250309
-0.0192863
-0.0148754
-0.0124431
-0.0111087
-0.0114887
-0.0145785
-0.0165299
-0.0136948
-0.0116369
-0.0130724
-0.0141264
-0.0157996
-0.0182939
-0.0195414
-0.0205315
-0.0215376
-0.0220171
-0.0225601
-0.0233977
-0.0238902
-0.0249554
-0.0258578
-0.0269657
-0.0282804
-0.0293822
-0.0307974
-0.0317939
-0.0329543
-0.033665
-0.0343102
-0.0345688
-0.0345688
-0.03431
-0.0336646
-0.0329539
-0.0317933
-0.0307968
-0.0293813
-0.0282795
-0.0269648
-0.0258569
-0.0249546
-0.0238895
-0.0233972
-0.0225598
-0.0220171
-0.021538
-0.0205319
-0.019542
-0.0182945
-0.0157995
-0.014126
-0.0130717
-0.0116355
-0.0136948
-0.0165316
-0.0145792
-0.0114876
-0.0111071
-0.0124417
-0.0148745
-0.0192868
-0.0250341
-0.0257374
-0.0173803
-0.010423
-0.0167375
-0.0311931
-0.043078
-0.0530946
-0.0660071
-0.0803293
-0.0940166
-0.108652
-0.122577
-0.128615
-0.122171
-0.105749
-0.0832778
-0.0547639
-0.0193567
-0.0218644
-0.0645691
-0.104073
-0.136505
-0.155194
-0.155169
-0.139957
-0.119528
-0.0997442
-0.0794264
-0.0592369
-0.0437393
-0.0320428
-0.019841
-0.0123329
-0.0170192
-0.0257338
-0.0252937
-0.0179214
-0.0126041
-0.0111877
-0.0119716
-0.0131277
-0.0143285
-0.0153236
-0.0126722
-0.00966891
-0.0118405
-0.0133544
-0.0125878
-0.0134084
-0.0130486
-0.0118427
-0.0116068
-0.0111804
-0.010764
-0.0113418
-0.0119987
-0.0130576
-0.0150634
-0.0165937
-0.0191651
-0.0210709
-0.0234118
-0.025303
-0.0270252
-0.0284879
-0.0295041
-0.0302849
-0.0306174
-0.0306174
-0.0302849
-0.0295042
-0.028488
-0.0270253
-0.025303
-0.0234117
-0.0210706
-0.0191646
-0.016593
-0.0150626
-0.0130565
-0.0119976
-0.0113408
-0.0107629
-0.0111797
-0.0116063
-0.0118424
-0.013049
-0.0134089
-0.012588
-0.0133551
-0.0118402
-0.00966739
-0.0126722
-0.015325
-0.0143294
-0.0131277
-0.0119706
-0.0111859
-0.0126022
-0.0179214
-0.025297
-0.0257374
-0.0170181
-0.0123282
-0.0198375
-0.0320415
-0.0437385
-0.0592372
-0.079428
-0.0997456
-0.119529
-0.13996
-0.155175
-0.155201
-0.136511
-0.104077
-0.0645713
-0.0218651
-0.0231677
-0.0708864
-0.119064
-0.159102
-0.179359
-0.175858
-0.156512
-0.131675
-0.10427
-0.0748616
-0.0499255
-0.0345371
-0.0242568
-0.0163325
-0.0166834
-0.0237811
-0.0250309
-0.0179214
-0.0118688
-0.0107915
-0.0128031
-0.0150339
-0.0146486
-0.0137526
-0.0124484
-0.00932968
-0.0102361
-0.0124039
-0.00975767
-0.00891202
-0.00933323
-0.00767279
-0.00773343
-0.00845967
-0.00888078
-0.0103604
-0.0125952
-0.0141291
-0.0167187
-0.0184441
-0.0198762
-0.0214484
-0.0216296
-0.022631
-0.0221796
-0.022587
-0.0220595
-0.0221296
-0.0218155
-0.0218058
-0.0218058
-0.0218157
-0.0221298
-0.0220599
-0.0225875
-0.0221802
-0.0226318
-0.0216304
-0.0214494
-0.019877
-0.0184449
-0.0167193
-0.0141293
-0.0125952
-0.0103599
-0.00887999
-0.00845904
-0.00773251
-0.007672
-0.00933321
-0.00891155
-0.00975757
-0.012405
-0.0102357
-0.00932844
-0.0124485
-0.0137533
-0.0146498
-0.0150349
-0.0128026
-0.0107895
-0.0118665
-0.0179214
-0.0250341
-0.0237836
-0.0166819
-0.0163291
-0.024254
-0.0345344
-0.0499234
-0.0748621
-0.104273
-0.131677
-0.156515
-0.175863
-0.179366
-0.159109
-0.119069
-0.0708882
-0.0231681
-0.0234759
-0.0737105
-0.127278
-0.172452
-0.195223
-0.192595
-0.172547
-0.142228
-0.104618
-0.0675251
-0.042528
-0.0304786
-0.0227019
-0.0182701
-0.0210438
-0.0239993
-0.0192863
-0.0126041
-0.0107915
-0.0130769
-0.0162981
-0.015543
-0.0118461
-0.0108759
-0.00947177
-0.00827091
-0.0107642
-0.00943098
-0.00738483
-0.00971034
-0.00924725
-0.00901577
-0.010935
-0.011583
-0.0123611
-0.0136592
-0.0136178
-0.0128202
-0.0125061
-0.00995156
-0.00904795
-0.00660213
-0.00518814
-0.00381385
-0.00240733
-0.00197709
-0.000977216
-0.000986144
-0.000499789
-0.000549254
-0.000549187
-0.000499496
-0.000985757
-0.000976605
-0.00197649
-0.00240658
-0.00381324
-0.0051876
-0.00660178
-0.00904802
-0.00995172
-0.0125069
-0.012821
-0.0136188
-0.0136603
-0.0123617
-0.0115835
-0.0109353
-0.00901525
-0.00924713
-0.00971046
-0.00738386
-0.00943104
-0.0107649
-0.00827008
-0.00947096
-0.0108754
-0.0118459
-0.0155446
-0.0162998
-0.0130766
-0.0107895
-0.0126022
-0.0192868
-0.0240018
-0.0210447
-0.0182687
-0.0226999
-0.0304756
-0.0425237
-0.0675226
-0.10462
-0.142231
-0.172551
-0.192601
-0.195231
-0.17246
-0.127283
-0.0737117
-0.0234758
-0.0230461
-0.0735025
-0.129174
-0.177556
-0.204327
-0.205581
-0.185288
-0.147704
-0.101182
-0.0622868
-0.0417723
-0.0323009
-0.0240384
-0.0201274
-0.0221944
-0.0211738
-0.0148754
-0.0111877
-0.0128031
-0.0162981
-0.0160627
-0.0103785
-0.0079655
-0.00990482
-0.00903778
-0.0101476
-0.0118241
-0.00925684
-0.0104575
-0.0112734
-0.00904826
-0.0101411
-0.0100469
-0.00860088
-0.00765377
-0.00623412
-0.00354241
-0.00263578
-0.00136471
-0.000535669
-0.00192189
-0.00152517
-0.0042713
-0.00461443
-0.00719093
-0.00800308
-0.00972512
-0.0104798
-0.0112904
-0.0115879
-0.0115879
-0.0112904
-0.0104799
-0.00972502
-0.00800293
-0.00719062
-0.00461381
-0.00427063
-0.00152397
-0.0019208
-0.000534226
-0.0013634
-0.00263483
-0.0035415
-0.00623403
-0.00765398
-0.00860113
-0.0100477
-0.0101415
-0.00904804
-0.0112741
-0.0104577
-0.00925649
-0.011825
-0.0101479
-0.00903748
-0.00990439
-0.00796366
-0.0103777
-0.0160646
-0.0162998
-0.0128026
-0.0111859
-0.0148745
-0.0211749
-0.0221955
-0.0201268
-0.0240376
-0.0322994
-0.041768
-0.0622816
-0.10118
-0.147707
-0.185294
-0.205588
-0.204335
-0.177562
-0.129178
-0.0735029
-0.0230457
-0.0223145
-0.0714789
-0.12662
-0.176508
-0.207521
-0.212821
-0.19117
-0.147358
-0.0980618
-0.0638376
-0.0476824
-0.0360875
-0.0248541
-0.0214409
-0.0225894
-0.0184803
-0.0124431
-0.0119716
-0.0150339
-0.015543
-0.0103785
-0.00641512
-0.010449
-0.0128385
-0.01087
-0.0121015
-0.0105026
-0.00789367
-0.00905962
-0.00706823
-0.00659325
-0.00737574
-0.00553358
-0.0048533
-0.00487452
-0.00504761
-0.00586326
-0.00889347
-0.00975923
-0.013174
-0.0144381
-0.0158249
-0.0173394
-0.0166858
-0.0179287
-0.0164465
-0.0171682
-0.0159247
-0.0162118
-0.0157485
-0.0157486
-0.0162121
-0.0159251
-0.0171688
-0.0164472
-0.0179297
-0.0166868
-0.0173406
-0.015826
-0.014439
-0.0131748
-0.00975927
-0.00889347
-0.00586252
-0.00504664
-0.00487377
-0.00485245
-0.0055331
-0.00737597
-0.00659295
-0.00706791
-0.00905978
-0.00789309
-0.0105027
-0.0121023
-0.0108705
-0.0128399
-0.0104488
-0.0064126
-0.0103777
-0.0155446
-0.0150349
-0.0119706
-0.0124417
-0.0184807
-0.0225906
-0.0214403
-0.024853
-0.0360873
-0.0476802
-0.0638321
-0.0980579
-0.14736
-0.191177
-0.212829
-0.207529
-0.176514
-0.126622
-0.0714783
-0.0223138
-0.0219207
-0.069464
-0.122132
-0.17119
-0.204343
-0.211638
-0.188635
-0.143793
-0.0995965
-0.0725998
-0.0563129
-0.0390635
-0.026278
-0.0242156
-0.0226199
-0.0153153
-0.0111087
-0.0131277
-0.0146486
-0.0118461
-0.0079655
-0.010449
-0.015132
-0.01166
-0.00817008
-0.00874644
-0.00616446
-0.00646313
-0.0082292
-0.00743445
-0.00856397
-0.00811283
-0.00798498
-0.00918229
-0.0105321
-0.0111938
-0.012155
-0.0121121
-0.0100407
-0.00982951
-0.00576483
-0.00519622
-0.00159274
-0.000559989
0.00144183
0.00260375
0.00329026
0.0041548
0.00425625
0.00456883
0.00456901
0.00425641
0.00415529
0.00329069
0.00260441
0.00144238
-0.000559495
-0.00159233
-0.00519632
-0.00576492
-0.00983036
-0.0100416
-0.0121133
-0.0121563
-0.0111945
-0.0105326
-0.00918239
-0.00798461
-0.00811268
-0.00856412
-0.00743438
-0.00822936
-0.00646255
-0.00616354
-0.00874602
-0.0081693
-0.0116608
-0.0151343
-0.0104488
-0.00796366
-0.0118459
-0.0146498
-0.0131277
-0.0111071
-0.0153146
-0.0226213
-0.0242158
-0.0262763
-0.0390628
-0.0563125
-0.0725963
-0.0995916
-0.143793
-0.188641
-0.211647
-0.204351
-0.171195
-0.122133
-0.0694627
-0.0219197
-0.022531
-0.0692531
-0.117799
-0.162524
-0.193781
-0.200768
-0.179058
-0.140602
-0.106985
-0.0853084
-0.0646177
-0.0424637
-0.0303856
-0.0272427
-0.0202647
-0.0119259
-0.0114887
-0.0143285
-0.0137526
-0.0108759
-0.00990482
-0.0128385
-0.01166
-0.00544714
-0.00631217
-0.00923069
-0.00838526
-0.0105008
-0.0106354
-0.00875309
-0.00860618
-0.00818602
-0.00838143
-0.00797422
-0.00726666
-0.00490636
-0.00381631
-0.00120552
-0.000343323
-0.000113378
0.000548872
-0.0018002
-0.00139928
-0.00470153
-0.00466065
-0.00743751
-0.00763889
-0.00930525
-0.00949727
-0.0100336
-0.0100335
-0.00949736
-0.00930522
-0.00763886
-0.0074374
-0.00466029
-0.00470115
-0.00139842
-0.00179937
0.000550114
-0.000112177
-0.000342232
-0.00120452
-0.00381598
-0.00490627
-0.00726708
-0.00797476
-0.00838182
-0.00818612
-0.00860609
-0.0087531
-0.0106361
-0.0105015
-0.00838544
-0.00923096
-0.00631076
-0.00544531
-0.0116608
-0.0128399
-0.00990439
-0.0108754
-0.0137533
-0.0143294
-0.0114876
-0.0119239
-0.020265
-0.027244
-0.0303845
-0.0424622
-0.0646178
-0.0853073
-0.106981
-0.1406
-0.179062
-0.200776
-0.193789
-0.162529
-0.1178
-0.0692517
-0.0225301
-0.0245296
-0.0718095
-0.114531
-0.150653
-0.175608
-0.181349
-0.165444
-0.139725
-0.118239
-0.0986557
-0.0727033
-0.048195
-0.0357818
-0.0276073
-0.0165671
-0.0116809
-0.0145785
-0.0153236
-0.0124484
-0.00947177
-0.00903778
-0.01087
-0.00817008
-0.00631217
-0.0118972
-0.0121729
-0.00853232
-0.0088951
-0.00656288
-0.00526266
-0.00669191
-0.00645942
-0.00549585
-0.00516155
-0.00468696
-0.00439029
-0.00656282
-0.00703748
-0.0102017
-0.0112304
-0.0130777
-0.0141735
-0.0140118
-0.0148689
-0.0134592
-0.0139804
-0.0124254
-0.0126653
-0.0117245
-0.011788
-0.011788
-0.0117246
-0.0126657
-0.0124259
-0.0139811
-0.0134599
-0.0148699
-0.0140127
-0.0141745
-0.0130786
-0.011231
-0.010202
-0.0070372
-0.00656241
-0.00438944
-0.00468627
-0.00516115
-0.00549557
-0.00645963
-0.00669195
-0.00526189
-0.00656248
-0.00889509
-0.0085323
-0.0121746
-0.0118984
-0.00631076
-0.0081693
-0.0108705
-0.00903748
-0.00947096
-0.0124485
-0.015325
-0.0145792
-0.0116789
-0.0165654
-0.0276079
-0.0357819
-0.0481936
-0.0727032
-0.0986563
-0.118238
-0.139723
-0.165446
-0.181355
-0.175615
-0.150657
-0.114532
-0.0718091
-0.0245292
-0.0277576
-0.0767539
-0.111948
-0.135643
-0.151182
-0.156341
-0.150522
-0.140836
-0.130503
-0.111307
-0.0815688
-0.0554432
-0.0396886
-0.0263315
-0.0162383
-0.0156296
-0.0165299
-0.0126722
-0.00932968
-0.00827091
-0.0101476
-0.0121015
-0.00874644
-0.00923069
-0.0121729
-0.00621638
-0.00411393
-0.00735069
-0.00628536
-0.00786488
-0.00889467
-0.00716161
-0.00734822
-0.00853584
-0.00858267
-0.00963894
-0.0104098
-0.00857359
-0.0089
-0.00561418
-0.00481534
-0.00221379
-0.000747815
0.000421288
0.00185364
0.00196305
0.00297191
0.00270226
0.00319712
0.00304964
0.00304968
0.00319735
0.00270255
0.00297239
0.00196351
0.00185425
0.000421759
-0.000747364
-0.00221357
-0.00481543
-0.00561443
-0.00890079
-0.00857425
-0.0104107
-0.00963961
-0.00858286
-0.00853604
-0.0073479
-0.00716137
-0.00889525
-0.00786503
-0.00628522
-0.00735061
-0.00411221
-0.00621565
-0.0121746
-0.00923096
-0.00874602
-0.0121023
-0.0101479
-0.00827008
-0.00932844
-0.0126722
-0.0165316
-0.0156298
-0.0162361
-0.0263303
-0.0396886
-0.0554426
-0.0815688
-0.111308
-0.130503
-0.140835
-0.150522
-0.156344
-0.151186
-0.135647
-0.111951
-0.0767556
-0.0277581
-0.031464
-0.0824229
-0.108853
-0.118092
-0.123243
-0.129191
-0.135781
-0.14246
-0.141766
-0.122953
-0.0907722
-0.0622657
-0.0425335
-0.0275359
-0.0200864
-0.0182977
-0.0136948
-0.00966891
-0.0102361
-0.0107642
-0.0118241
-0.0105026
-0.00616446
-0.00838526
-0.00853232
-0.00411393
-0.0090829
-0.0113308
-0.00777751
-0.00856399
-0.00712509
-0.00621409
-0.00727456
-0.00697294
-0.00533255
-0.00511073
-0.0032732
-0.00180393
-0.00281788
-0.00102541
-0.00395614
-0.003223
-0.00597305
-0.00646465
-0.00809191
-0.00912876
-0.00978673
-0.0106679
-0.0108366
-0.0111684
-0.0111684
-0.0108366
-0.0106681
-0.00978676
-0.0091289
-0.00809184
-0.00646453
-0.00597277
-0.00322241
-0.00395562
-0.0010244
-0.00281725
-0.00180312
-0.00327272
-0.00511081
-0.00533253
-0.00697338
-0.0072749
-0.00621374
-0.00712507
-0.0085641
-0.00777752
-0.0113324
-0.0090833
-0.00411221
-0.0085323
-0.00838544
-0.00616354
-0.0105027
-0.011825
-0.0107649
-0.0102357
-0.00966739
-0.0136948
-0.018299
-0.0200859
-0.027534
-0.0425324
-0.0622652
-0.0907726
-0.122955
-0.141768
-0.14246
-0.13578
-0.129191
-0.123244
-0.118094
-0.108857
-0.0824272
-0.0314659
-0.0345068
-0.0864416
-0.103898
-0.0992331
-0.0950411
-0.102759
-0.12166
-0.143198
-0.150925
-0.133
-0.0991117
-0.068478
-0.0468255
-0.0320146
-0.0237381
-0.017321
-0.0116369
-0.0118405
-0.0124039
-0.00943098
-0.00925684
-0.00789367
-0.00646313
-0.0105008
-0.0088951
-0.00735069
-0.0113308
-0.00661372
-0.00390856
-0.00684618
-0.00583075
-0.0061663
-0.00640684
-0.00556529
-0.00489425
-0.00665631
-0.00611641
-0.00825735
-0.00943488
-0.00907983
-0.0115027
-0.00895828
-0.0111375
-0.00819913
-0.0093523