/*--------------------------------*- C++ -*----------------------------------*\
  =========                 |
  \\      /  F ield         | OpenFOAM: The Open Source CFD Toolbox
   \\    /   O peration     | Website:  https://openfoam.org
    \\  /    A nd           | Version:  10
     \\/     M anipulation  |
\*---------------------------------------------------------------------------*/
FoamFile
{
    format      ascii;
    class       volScalarField;
    location    "79";
    object      h_0;
}
// * * * * * * * * * * * * * * * * * * * * * * * * * * * * * * * * * * * * * //

dimensions      [0 1 0 0 0 0 0];

internalField   nonuniform List<scalar> 
10000
(
-0.000553766
-0.00159677
-0.00248329
-0.00319858
-0.00382939
-0.00455807
-0.00555451
-0.00679484
-0.00799727
-0.00876518
-0.00880649
-0.00810109
-0.00685461
-0.00527473
-0.00341589
-0.00125768
0.00110437
0.00334577
0.00498731
0.00566027
0.00531624
0.00423253
0.00283083
0.0014613
0.000344654
-0.000351922
-0.000517027
-0.000141561
0.000715978
0.00194137
0.00333229
0.00464333
0.00567302
0.00627913
0.00633888
0.00577391
0.00466275
0.0032436
0.00178159
0.000447336
-0.000757008
-0.00197863
-0.00333848
-0.00478533
-0.00616195
-0.00737939
-0.00843433
-0.0092724
-0.00979868
-0.0100215
-0.0100215
-0.00979887
-0.00927272
-0.00843481
-0.00737998
-0.00616257
-0.00478589
-0.0033389
-0.00197889
-0.000757063
0.000447512
0.001782
0.0032442
0.00466344
0.00577456
0.00633945
0.00627963
0.00567349
0.00464381
0.00333276
0.00194176
0.000716228
-0.000141483
-0.000517117
-0.00035217
0.000344242
0.00146072
0.0028301
0.00423172
0.00531539
0.00565943
0.00498647
0.00334499
0.0011037
-0.00125821
-0.0034163
-0.00527503
-0.00685481
-0.00810121
-0.00880653
-0.00876515
-0.00799717
-0.00679468
-0.00555433
-0.00455792
-0.00382927
-0.00319848
-0.00248319
-0.00159669
-0.000553729
-0.00159677
-0.00460582
-0.00716364
-0.00922327
-0.0110414
-0.013162
-0.0160869
-0.0197404
-0.0232874
-0.0255527
-0.0256637
-0.0235513
-0.0198276
-0.0151198
-0.0095892
-0.00315791
0.00390825
0.0106524
0.0156563
0.0178316
0.0170309
0.0140513
0.0101066
0.00621063
0.00301381
0.00101498
0.000547311
0.00164437
0.00414223
0.00770864
0.0117447
0.0155228
0.0184515
0.0201259
0.0202076
0.018491
0.0152203
0.0110864
0.00683998
0.00295607
-0.000557881
-0.0041012
-0.00799226
-0.0120755
-0.0159238
-0.0193223
-0.0222852
-0.0246489
-0.0261252
-0.0267404
-0.0267405
-0.0261256
-0.0246497
-0.0222863
-0.0193237
-0.0159253
-0.0120769
-0.00799325
-0.00410174
-0.000557883
0.00295668
0.00684118
0.011088
0.0152222
0.0184927
0.0202091
0.0201272
0.0184527
0.015524
0.0117459
0.00770967
0.00414294
0.00164466
0.000547189
0.00101445
0.00301284
0.00620921
0.0101048
0.0140493
0.0170288
0.0178294
0.0156541
0.0106504
0.00390652
-0.00315927
-0.00959021
-0.0151205
-0.0198281
-0.0235515
-0.0256638
-0.0255527
-0.0232872
-0.01974
-0.0160865
-0.0131616
-0.0110411
-0.00922302
-0.0071634
-0.00460563
-0.00159668
-0.00248329
-0.00716364
-0.0111363
-0.0143205
-0.0171336
-0.0204645
-0.0251218
-0.0309723
-0.0366603
-0.0402763
-0.0403867
-0.036863
-0.030711
-0.0229788
-0.0139298
-0.00339455
0.00824109
0.0194415
0.0279154
0.0319092
0.0311676
0.0269107
0.021004
0.0150254
0.0100246
0.0068332
0.00601454
0.00765126
0.0115068
0.0170595
0.0233401
0.0291673
0.0335982
0.0360237
0.0359689
0.0331717
0.0280472
0.0216553
0.0151035
0.00907491
0.00359034
-0.00188909
-0.00776632
-0.0137796
-0.0193457
-0.0242524
-0.0285882
-0.0320793
-0.0342366
-0.0351069
-0.0351071
-0.034237
-0.03208
-0.0285893
-0.0242538
-0.0193472
-0.0137809
-0.00776718
-0.00188937
0.00359076
0.00907607
0.0151054
0.0216576
0.0280495
0.0331738
0.0359705
0.036025
0.0335994
0.0291686
0.0233416
0.0170608
0.0115079
0.00765192
0.00601473
0.00683288
0.0100237
0.0150239
0.021002
0.0269084
0.0311651
0.0319066
0.0279128
0.0194391
0.008239
-0.00339618
-0.013931
-0.0229796
-0.0307116
-0.0368633
-0.0403869
-0.0402762
-0.0366599
-0.0309718
-0.0251213
-0.0204641
-0.0171333
-0.0143202
-0.011136
-0.0071634
-0.00248319
-0.00319858
-0.00922327
-0.0143205
-0.0183799
-0.0219614
-0.0262569
-0.0323416
-0.0400277
-0.0474937
-0.0521646
-0.0520978
-0.0471183
-0.0386116
-0.0280353
-0.0157531
-0.00148409
0.0143249
0.0296567
0.0414658
0.0474126
0.0471162
0.0420896
0.0346682
0.0268603
0.0200744
0.015487
0.0139282
0.0155875
0.0202114
0.0271321
0.0350539
0.0423891
0.0479003
0.0508553
0.0507454
0.0473258
0.0411422
0.0334606
0.0255487
0.0181764
0.0114003
0.00468653
-0.00232203
-0.009265
-0.0155376
-0.0210681
-0.0260712
-0.0301624
-0.0326514
-0.0336043
-0.0336043
-0.0326514
-0.0301625
-0.0260715
-0.0210686
-0.0155382
-0.00926539
-0.00232207
0.00468702
0.0114015
0.0181781
0.0255509
0.0334629
0.0411443
0.0473275
0.0507466
0.0508562
0.0479011
0.0423901
0.0350551
0.0271335
0.0202128
0.0155887
0.0139291
0.0154874
0.0200743
0.0268595
0.0346668
0.0420878
0.0471142
0.0474104
0.0414635
0.0296546
0.0143231
-0.00148553
-0.0157541
-0.028036
-0.0386121
-0.0471187
-0.052098
-0.0521646
-0.0474935
-0.0400273
-0.0323412
-0.0262566
-0.0219611
-0.0183796
-0.0143202
-0.00922301
-0.00319847
-0.00382939
-0.0110414
-0.0171336
-0.0219614
-0.0261871
-0.0312397
-0.0384132
-0.0474802
-0.056224
-0.0614956
-0.0609344
-0.0543662
-0.0435457
-0.0303215
-0.0151753
0.00227399
0.021578
0.0403748
0.055021
0.0626699
0.06278
0.0570314
0.0480671
0.0382003
0.0291504
0.0224533
0.0192713
0.0200018
0.0244595
0.031887
0.040719
0.049026
0.055345
0.058908
0.0592681
0.0562345
0.0503718
0.042918
0.0350765
0.0275941
0.0205967
0.0136799
0.00662568
-0.000129323
-0.00606177
-0.0113204
-0.0162633
-0.0204038
-0.0228707
-0.0237422
-0.0237421
-0.0228703
-0.0204031
-0.0162625
-0.0113195
-0.00606087
-0.00012837
0.00662681
0.0136814
0.0205986
0.0275962
0.0350787
0.0429199
0.0503732
0.0562353
0.0592684
0.058908
0.0553451
0.0490265
0.04072
0.0318885
0.0244614
0.0200038
0.0192733
0.0224548
0.0291514
0.0382006
0.0480669
0.0570306
0.0627787
0.0626683
0.0550193
0.0403732
0.0215765
0.00227283
-0.0151762
-0.0303222
-0.0435462
-0.0543667
-0.0609348
-0.0614958
-0.0562239
-0.0474801
-0.0384131
-0.0312395
-0.0261869
-0.0219611
-0.0171333
-0.0110411
-0.00382926
-0.00455807
-0.013162
-0.0204645
-0.0262569
-0.0312397
-0.0369964
-0.0449847
-0.0549528
-0.0643769
-0.0696585
-0.0681439
-0.0597262
-0.0465213
-0.0307555
-0.0130685
0.00698116
0.0289974
0.0504315
0.0672148
0.0760626
0.0762219
0.0694266
0.0585071
0.0459889
0.033854
0.0239972
0.0179835
0.0165432
0.0196634
0.0265605
0.0354707
0.0442137
0.0511934
0.0556908
0.0573794
0.0560946
0.0522488
0.0467995
0.0406939
0.034587
0.0286999
0.0228196
0.016892
0.0113972
0.00673727
0.00254853
-0.00164879
-0.00529847
-0.00740561
-0.00805156
-0.00805135
-0.00740492
-0.00529723
-0.00164707
0.00255054
0.00673937
0.0113993
0.0168942
0.0228218
0.0287021
0.0345892
0.0406957
0.0468008
0.0522493
0.0560945
0.057379
0.0556904
0.0511931
0.044214
0.0354716
0.0265622
0.0196658
0.0165461
0.0179865
0.0239998
0.033856
0.0459902
0.0585077
0.0694264
0.0762211
0.0760614
0.0672133
0.05043
0.0289961
0.00698
-0.0130694
-0.0307563
-0.046522
-0.0597269
-0.0681445
-0.069659
-0.0643771
-0.0549529
-0.0449847
-0.0369963
-0.0312395
-0.0262566
-0.0204641
-0.0131616
-0.00455791
-0.00555451
-0.0160869
-0.0251218
-0.0323416
-0.0384132
-0.0449847
-0.0536038
-0.0640023
-0.0734596
-0.0780885
-0.0750854
-0.0644756
-0.0487247
-0.0304235
-0.010409
0.0117759
0.0358261
0.0591499
0.0774298
0.0870237
0.0869183
0.078791
0.0655584
0.0498913
0.0339894
0.0200817
0.0101718
0.00542225
0.00607806
0.0113845
0.0194647
0.0280209
0.035455
0.041178
0.0449872
0.0466555
0.0462627
0.044298
0.0413515
0.0379671
0.0344598
0.0307954
0.0270486
0.0237109
0.0210809
0.0186479
0.0158461
0.013231
0.011823
0.0115398
0.01154
0.0118238
0.0132323
0.015848
0.0186502
0.0210834
0.0237134
0.0270512
0.0307978
0.034462
0.037969
0.041353
0.0442987
0.0462628
0.0466551
0.0449867
0.0411777
0.035455
0.0280216
0.0194661
0.0113867
0.00608108
0.00542579
0.0101754
0.0200849
0.0339918
0.0498929
0.065559
0.0787908
0.0869173
0.0870222
0.077428
0.0591481
0.0358245
0.0117744
-0.0104103
-0.0304247
-0.0487257
-0.0644766
-0.0750863
-0.0780892
-0.0734601
-0.0640025
-0.0536039
-0.0449847
-0.0384131
-0.0323412
-0.0251213
-0.0160865
-0.00555431
-0.00679484
-0.0197404
-0.0309723
-0.0400277
-0.0474802
-0.0549528
-0.0640023
-0.0743526
-0.0832134
-0.0865845
-0.0816492
-0.0686134
-0.050269
-0.0295379
-0.00745538
0.0164374
0.0419544
0.0665683
0.0858733
0.0959776
0.0955933
0.0862379
0.0708074
0.0520548
0.0323514
0.0141992
2.02481e-06
-0.00862888
-0.0111628
-0.00829138
-0.00190296
0.00575667
0.0132429
0.0201584
0.0263778
0.031501
0.0351612
0.0373251
0.0382437
0.0383634
0.0380534
0.0373915
0.0365258
0.0359413
0.0358766
0.0357525
0.0349377
0.0338838
0.0335099
0.0337237
0.0337238
0.0335103
0.0338846
0.0349389
0.0357541
0.0358786
0.0359436
0.0365281
0.0373937
0.0380553
0.0383649
0.0382448
0.0373257
0.0351614
0.031501
0.0263779
0.0201589
0.0132438
0.00575812
-0.00190087
-0.00828862
-0.0111595
-0.00862519
5.6515e-06
0.0142023
0.0323536
0.052056
0.0708075
0.086237
0.0955918
0.0959756
0.085871
0.066566
0.0419524
0.0164356
-0.00745692
-0.0295393
-0.0502704
-0.0686146
-0.0816502
-0.0865852
-0.083214
-0.074353
-0.0640025
-0.0549529
-0.0474801
-0.0400274
-0.0309718
-0.01974
-0.00679466
-0.00799727
-0.0232874
-0.0366603
-0.0474937
-0.056224
-0.0643769
-0.0734596
-0.0832134
-0.0909066
-0.0925915
-0.0855559
-0.0702094
-0.0496149
-0.0269504
-0.00339747
0.0215391
0.0478352
0.0731108
0.0930082
0.103513
0.103092
0.0930251
0.0760807
0.0550251
0.032347
0.0107167
-0.00719997
-0.0194486
-0.0252626
-0.0252456
-0.0211728
-0.0150571
-0.00805949
-0.000374151
0.00787086
0.016026
0.0232832
0.0291834
0.0337483
0.037346
0.040324
0.0427928
0.0449397
0.0472461
0.0499263
0.052389
0.053941
0.0548259
0.0557351
0.0565444
0.0565444
0.0557351
0.054826
0.0539412
0.0523895
0.0499273
0.0472476
0.0449414
0.0427946
0.0403254
0.0373471
0.0337491
0.0291842
0.023284
0.016027
0.00787206
-0.000372654
-0.00805764
-0.0150548
-0.02117
-0.0252425
-0.0252593
-0.0194453
-0.00719695
0.0107191
0.0323485
0.0550255
0.0760801
0.0930237
0.10309
0.10351
0.0930058
0.0731085
0.0478332
0.0215375
-0.00339891
-0.0269517
-0.0496161
-0.0702104
-0.0855568
-0.0925923
-0.0909073
-0.083214
-0.0734601
-0.0643772
-0.0562239
-0.0474935
-0.0366599
-0.0232871
-0.00799715
-0.00876518
-0.0255527
-0.0402763
-0.0521646
-0.0614956
-0.0696585
-0.0780885
-0.0865845
-0.0925915
-0.0923688
-0.0834171
-0.0663434
-0.0443703
-0.0207985
0.00313547
0.0280211
0.0540548
0.0790915
0.0989499
0.109625
0.1094
0.0992722
0.0817898
0.0596722
0.0354699
0.0118861
-0.00837353
-0.0232298
-0.0317972
-0.0345606
-0.0330305
-0.0288271
-0.0227688
-0.0149042
-0.00545174
0.00467798
0.0143483
0.0228596
0.0301375
0.0364695
0.0420966
0.0471105
0.051745
0.0564934
0.0615587
0.066372
0.0701972
0.0730165
0.0752083
0.0765963
0.0765962
0.0752079
0.073016
0.0701965
0.0663715
0.0615587
0.0564941
0.0517461
0.0471117
0.0420976
0.0364702
0.0301381
0.0228603
0.0143494
0.0046796
-0.00544971
-0.0149019
-0.0227664
-0.0288243
-0.0330276
-0.0345576
-0.0317944
-0.0232272
-0.00837141
0.0118876
0.0354706
0.059672
0.0817888
0.0992706
0.109398
0.109623
0.098948
0.0790899
0.0540535
0.0280201
0.00313462
-0.0207993
-0.044371
-0.066344
-0.0834178
-0.0923695
-0.0925923
-0.0865852
-0.0780892
-0.069659
-0.0614958
-0.0521646
-0.0402762
-0.0255526
-0.00876513
-0.00880649
-0.0256637
-0.0403867
-0.0520978
-0.0609344
-0.0681439
-0.0750854
-0.0816492
-0.0855559
-0.0834171
-0.0730511
-0.0552298
-0.0331658
-0.0100886
0.0128222
0.0362859
0.0607557
0.0844079
0.103365
0.113757
0.113745
0.104031
0.0868937
0.0649651
0.0408022
0.0170007
-0.00393567
-0.0200573
-0.0304929
-0.0355616
-0.0363585
-0.0340079
-0.0290151
-0.0213889
-0.011503
-0.000478859
0.0103695
0.0202686
0.0291282
0.0371224
0.0443233
0.0507996
0.0568667
0.063036
0.0694926
0.0757345
0.0810641
0.0852421
0.0883251
0.0900849
0.0900848
0.0883247
0.0852414
0.0810633
0.0757338
0.0694923
0.0630362
0.0568673
0.0508003
0.0443238
0.0371226
0.0291282
0.0202689
0.0103704
-0.000477302
-0.0115009
-0.0213865
-0.0290125
-0.0340053
-0.0363558
-0.035559
-0.0304906
-0.0200554
-0.00393431
0.0170015
0.0408025
0.0649649
0.086893
0.10403
0.113744
0.113756
0.103364
0.0844074
0.0607555
0.0362858
0.0128221
-0.0100887
-0.0331659
-0.05523
-0.0730515
-0.0834178
-0.0855568
-0.0816501
-0.0750863
-0.0681445
-0.0609348
-0.0520981
-0.0403869
-0.0256637
-0.00880652
-0.00810109
-0.0235513
-0.036863
-0.0471183
-0.0543662
-0.0597262
-0.0644756
-0.0686134
-0.0702094
-0.0663434
-0.0552298
-0.0377558
-0.0169346
0.00429521
0.02493
0.0458176
0.0676451
0.0889515
0.106253
0.115897
0.115971
0.106897
0.0906947
0.0698897
0.0469804
0.0243243
0.00403745
-0.0122389
-0.0237205
-0.030496
-0.0331378
-0.0322527
-0.0281266
-0.0208397
-0.0109386
0.000327671
0.0115868
0.0220675
0.0316569
0.0403608
0.0480553
0.0548103
0.0610464
0.0672719
0.0736446
0.0798159
0.0852841
0.0897241
0.0929387
0.0946788
0.0946788
0.0929386
0.0897239
0.0852839
0.0798157
0.0736446
0.067272
0.0610466
0.0548104
0.0480551
0.0403602
0.031656
0.0220667
0.0115866
0.000328363
-0.0109371
-0.0208376
-0.0281243
-0.0322503
-0.0331354
-0.0304938
-0.0237186
-0.0122374
0.00403843
0.0243248
0.0469805
0.0698897
0.0906946
0.106897
0.11597
0.115897
0.106253
0.0889521
0.0676459
0.0458183
0.0249305
0.00429565
-0.0169342
-0.0377556
-0.05523
-0.066344
-0.0702104
-0.0686146
-0.0644766
-0.0597269
-0.0543667
-0.0471187
-0.0368633
-0.0235515
-0.0081012
-0.00685461
-0.0198276
-0.030711
-0.0386116
-0.0435457
-0.0465213
-0.0487247
-0.050269
-0.0496149
-0.0443703
-0.0331658
-0.0169346
0.00167131
0.0201909
0.0379003
0.0557497
0.0745755
0.0932377
0.108655
0.117414
0.11755
0.109252
0.0943249
0.0751893
0.054208
0.0333909
0.01438
-0.0015328
-0.0136282
-0.021703
-0.025775
-0.0259833
-0.0224956
-0.0155286
-0.00577206
0.00547931
0.0168548
0.0275792
0.0374572
0.0462752
0.0537124
0.0598553
0.0652061
0.070213
0.0750042
0.079504
0.0836017
0.0870594
0.0895315
0.0908011
0.0908012
0.0895318
0.0870599
0.0836023
0.0795047
0.0750047
0.0702131
0.0652057
0.0598545
0.0537112
0.0462737
0.0374554
0.0275774
0.0168535
0.00547889
-0.00577144
-0.0155271
-0.0224936
-0.025981
-0.0257727
-0.0217009
-0.0136264
-0.00153144
0.0143809
0.0333913
0.0542082
0.0751896
0.0943252
0.109253
0.117551
0.117414
0.108656
0.0932387
0.0745766
0.0557507
0.0379011
0.0201915
0.00167183
-0.0169342
-0.0331659
-0.044371
-0.049616
-0.0502703
-0.0487257
-0.046522
-0.0435462
-0.0386121
-0.0307116
-0.0198281
-0.0068548
-0.00527473
-0.0151198
-0.0229788
-0.0280353
-0.0303215
-0.0307555
-0.0304235
-0.0295379
-0.0269504
-0.0207985
-0.0100886
0.00429521
0.0201909
0.0357429
0.0505786
0.0657052
0.0819724
0.098432
0.112338
0.12051
0.120952
0.113652
0.100241
0.083029
0.0641765
0.0452925
0.0275667
0.0120148
-0.000640989
-0.00989607
-0.0152772
-0.0165436
-0.0137967
-0.00737727
0.0019431
0.0128857
0.0241092
0.0348207
0.0447056
0.0533167
0.0601521
0.0653007
0.069272
0.072369
0.0746793
0.076494
0.0782328
0.0798678
0.0809914
0.0814725
0.0814727
0.0809919
0.0798687
0.0782339
0.0764951
0.0746799
0.0723687
0.0692708
0.0652988
0.0601499
0.0533143
0.0447031
0.0348184
0.0241074
0.0128847
0.00194325
-0.00737597
-0.0137946
-0.0165411
-0.0152749
-0.00989407
-0.000639441
0.0120158
0.0275672
0.0452927
0.0641765
0.0830291
0.100241
0.113652
0.120952
0.120511
0.112339
0.098433
0.0819734
0.065706
0.0505793
0.0357436
0.0201915
0.00429565
-0.0100887
-0.0207993
-0.0269517
-0.0295393
-0.0304247
-0.0307563
-0.0303222
-0.028036
-0.0229797
-0.0151205
-0.00527502
-0.00341589
-0.0095892
-0.0139298
-0.0157531
-0.0151753
-0.0130685
-0.010409
-0.00745538
-0.00339747
0.00313547
0.0128222
0.02493
0.0379003
0.0505786
0.0629879
0.0761287
0.0906867
0.105719
0.118724
0.126775
0.127897
0.121899
0.110216
0.0950077
0.0782038
0.061045
0.0443747
0.029043
0.0158105
0.00540218
-0.00137309
-0.00400726
-0.00253663
0.0026445
0.010759
0.0206042
0.0309308
0.0409915
0.0503976
0.0585043
0.0646495
0.0688886
0.0716489
0.0730012
0.0729532
0.0721589
0.0715648
0.0713561
0.0710878
0.0707474
0.0707476
0.0710883
0.0713568
0.0715656
0.0721596
0.0729533
0.0730002
0.0716467
0.0688858
0.0646466
0.0585016
0.0503953
0.0409897
0.0309295
0.0206037
0.0107594
0.00264599
-0.00253433
-0.00400467
-0.00137077
0.00540387
0.0158114
0.0290432
0.0443744
0.0610444
0.0782033
0.0950072
0.110216
0.121899
0.127897
0.126775
0.118725
0.10572
0.0906876
0.0761294
0.0629886
0.0505793
0.0379011
0.0249305
0.0128221
0.00313462
-0.0033989
-0.00745692
-0.0104103
-0.0130694
-0.0151762
-0.0157542
-0.013931
-0.0095902
-0.00341629
-0.00125768
-0.00315791
-0.00339455
-0.00148409
0.00227399
0.00698116
0.0117759
0.0164374
0.0215391
0.0280211
0.0362859
0.0458176
0.0557497
0.0657052
0.0761287
0.087935
0.101466
0.115603
0.128026
0.136131
0.138074
0.133507
0.123605
0.110316
0.0953562
0.0797047
0.0639917
0.0489695
0.0353994
0.0240749
0.0159289
0.0115919
0.0110851
0.0140308
0.0197264
0.0271427
0.0352705
0.043575
0.0517122
0.0588994
0.0643303
0.0679948
0.070182
0.0706773
0.0693375
0.067053
0.0651329
0.0638574
0.0627108
0.0618035
0.0618036
0.062711
0.0638575
0.0651328
0.0670526
0.0693365
0.0706753
0.0701792
0.0679916
0.0643274
0.0588972
0.0517108
0.0435746
0.0352708
0.0271435
0.0197278
0.0140327
0.0110874
0.0115942
0.0159307
0.0240758
0.0353993
0.0489684
0.06399
0.079703
0.0953549
0.110315
0.123605
0.133507
0.138074
0.136132
0.128027
0.115604
0.101467
0.0879358
0.0761294
0.065706
0.0557507
0.0458183
0.0362858
0.0280201
0.0215375
0.0164357
0.0117744
0.00697999
0.00227282
-0.00148553
-0.00339618
-0.00315926
-0.0012582
0.00110437
0.00390825
0.00824109
0.0143249
0.021578
0.0289974
0.0358261
0.0419544
0.0478352
0.0540548
0.0607557
0.0676451
0.0745755
0.0819724
0.0906867
0.101466
0.114181
0.127437
0.13908
0.146919
0.149364
0.145958
0.137566
0.125882
0.112474
0.0982028
0.0835913
0.0692881
0.0559591
0.0443042
0.03517
0.0291372
0.0262231
0.026093
0.0281987
0.0318261
0.0364089
0.0418224
0.0478861
0.0537239
0.0583965
0.0618278
0.0641753
0.0649389
0.0637436
0.0615074
0.0596477
0.05838
0.0570794
0.0559746
0.0559746
0.0570792
0.0583795
0.0596466
0.0615058
0.0637415
0.0649363
0.0641724
0.061825
0.0583942
0.0537226
0.0478859
0.0418235
0.0364108
0.0318284
0.028201
0.026095
0.0262249
0.0291386
0.0351707
0.0443039
0.0559577
0.0692856
0.0835884
0.0982001
0.112472
0.12588
0.137565
0.145958
0.149364
0.14692
0.139082
0.127439
0.114182
0.101467
0.0906876
0.0819734
0.0745766
0.0676459
0.0607555
0.0540535
0.0478333
0.0419524
0.0358245
0.0289961
0.0215765
0.0143231
0.00823901
0.00390653
0.00110371
0.00334577
0.0106524
0.0194415
0.0296567
0.0403748
0.0504315
0.0591499
0.0665683
0.0731108
0.0790915
0.0844079
0.0889515
0.0932377
0.098432
0.105719
0.115603
0.127437
0.139547
0.149971
0.156995
0.159361
0.156557
0.149127
0.138514
0.126226
0.113155
0.0997993
0.0866747
0.0742606
0.0630429
0.0536157
0.0463375
0.0411188
0.0376618
0.0356512
0.0348287
0.0352238
0.0372229
0.0408399
0.0451136
0.0489956
0.0523825
0.0553576
0.0571824
0.0571925
0.0561327
0.0553057
0.0547669
0.0537998
0.0527577
0.0527576
0.0537995
0.054766
0.0553041
0.0561305
0.0571899
0.0571798
0.0553551
0.0523806
0.0489944
0.0451134
0.0408407
0.0372249
0.0352267
0.0348319
0.0356541
0.0376638
0.0411198
0.0463376
0.0536151
0.0630414
0.0742581
0.0866715
0.0997958
0.113152
0.126224
0.138512
0.149127
0.156557
0.159362
0.156996
0.149973
0.139549
0.127439
0.115604
0.10572
0.098433
0.0932387
0.0889521
0.0844074
0.0790899
0.0731086
0.066566
0.0591481
0.05043
0.0403732
0.0296546
0.0194391
0.0106504
0.003345
0.00498731
0.0156563
0.0279154
0.0414658
0.055021
0.0672148
0.0774298
0.0858733
0.0930082
0.0989499
0.103365
0.106253
0.108655
0.112338
0.118724
0.128026
0.13908
0.149971
0.158965
0.164826
0.166651
0.163909
0.156847
0.146664
0.134879
0.122541
0.110242
0.098403
0.0872976
0.0771347
0.0681376
0.060303
0.0533479
0.047013
0.0412867
0.0364426
0.0331129
0.0321159
0.0335711
0.0364168
0.0395469
0.0428934
0.046535
0.0495667
0.0510307
0.0513868
0.0517176
0.0519406
0.0513369
0.050399
0.050399
0.0513367
0.0519398
0.0517161
0.0513847
0.0510283
0.0495646
0.0465334
0.0428926
0.0395469
0.0364175
0.0335726
0.0321183
0.0331161
0.036446
0.0412896
0.0470147
0.0533483
0.0603021
0.0681358
0.0771324
0.0872948
0.0983998
0.110239
0.122538
0.134877
0.146663
0.156847
0.16391
0.166653
0.164827
0.158967
0.149973
0.139082
0.128027
0.118725
0.112339
0.108656
0.106253
0.103364
0.0989481
0.0930058
0.085871
0.077428
0.0672133
0.0550194
0.0414636
0.0279129
0.0156541
0.00498648
0.00566027
0.0178316
0.0319092
0.0474126
0.0626699
0.0760626
0.0870237
0.0959776
0.103513
0.109625
0.113757
0.115897
0.117414
0.12051
0.126775
0.136131
0.146919
0.156995
0.164826
0.169606
0.170765
0.167783
0.160641
0.150286
0.138263
0.125884
0.114005
0.103095
0.0932776
0.0844505
0.0763819
0.0686377
0.0607277
0.0524652
0.0441717
0.0366099
0.0308536
0.0279278
0.0279143
0.0296688
0.0321201
0.0352946
0.0393039
0.0431435
0.0456194
0.0469075
0.0478857
0.0484361
0.0479444
0.0470273
0.0470272
0.0479441
0.0484355
0.0478845
0.0469059
0.0456176
0.043142
0.0393031
0.0352947
0.0321211
0.0296703
0.0279162
0.0279302
0.0308564
0.0366129
0.0441742
0.0524666
0.0607277
0.0686364
0.0763797
0.0844478
0.0932748
0.103092
0.114003
0.125882
0.138262
0.150286
0.160641
0.167784
0.170766
0.169608
0.164827
0.156996
0.14692
0.136132
0.126775
0.120511
0.117414
0.115897
0.113756
0.109623
0.10351
0.0959756
0.0870222
0.0760614
0.0626683
0.0474104
0.0319066
0.0178295
0.00565944
0.00531624
0.0170309
0.0311676
0.0471162
0.06278
0.0762219
0.0869183
0.0955933
0.103092
0.1094
0.113745
0.115971
0.11755
0.120952
0.127897
0.138074
0.149364
0.159361
0.166651
0.170765
0.17142
0.168123
0.160605
0.14956
0.136565
0.123303
0.111075
0.100576
0.0918353
0.0843859
0.0774911
0.0703194
0.0622583
0.0532325
0.0438254
0.0351023
0.0283117
0.0244439
0.0234732
0.02429
0.0260006
0.0287648
0.0327155
0.0367964
0.0396754
0.0413168
0.0424532
0.0430131
0.0425215
0.0416321
0.0416319
0.0425209
0.0430121
0.042452
0.0413154
0.0396741
0.0367956
0.0327155
0.0287658
0.0260024
0.0242923
0.0234758
0.0244466
0.0283143
0.0351047
0.0438273
0.0532336
0.0622582
0.070318
0.0774889
0.0843831
0.0918326
0.100574
0.111073
0.123301
0.136564
0.14956
0.160605
0.168123
0.171421
0.170766
0.166653
0.159362
0.149364
0.138074
0.127897
0.120952
0.117551
0.11597
0.113744
0.109398
0.10309
0.0955918
0.0869173
0.0762211
0.0627787
0.0471142
0.0311651
0.0170288
0.0053154
0.00423253
0.0140513
0.0269107
0.0420896
0.0570314
0.0694266
0.078791
0.0862379
0.0930251
0.0992722
0.104031
0.106897
0.109252
0.113652
0.121899
0.133507
0.145958
0.156557
0.163909
0.167783
0.168123
0.16444
0.156233
0.143986
0.129395
0.114631
0.101584
0.091256
0.0835535
0.0775576
0.0720217
0.0658461
0.0584345
0.0498084
0.0406143
0.0319314
0.0249231
0.0204219
0.0183804
0.0179468
0.0185764
0.0205812
0.0240781
0.0280003
0.0309868
0.0328661
0.0342368
0.0350479
0.0348781
0.0342523
0.0342519
0.0348769
0.0350463
0.0342352
0.0328646
0.0309858
0.028
0.0240788
0.0205829
0.018579
0.0179501
0.0183839
0.0204251
0.0249258
0.0319334
0.0406155
0.0498089
0.0584341
0.0658447
0.0720195
0.077555
0.0835509
0.091254
0.101583
0.114631
0.129394
0.143986
0.156233
0.16444
0.168123
0.167784
0.16391
0.156557
0.145958
0.133507
0.121899
0.113652
0.109253
0.106897
0.10403
0.0992706
0.0930237
0.0862371
0.0787908
0.0694264
0.0570306
0.0420878
0.0269084
0.0140493
0.00423172
0.00283083
0.0101066
0.021004
0.0346682
0.0480671
0.0585071
0.0655584
0.0708074
0.0760807
0.0817898
0.0868937
0.0906947
0.0943249
0.100241
0.110216
0.123605
0.137566
0.149127
0.156847
0.160641
0.160605
0.156233
0.146845
0.132852
0.116234
0.0997643
0.0859321
0.0759821
0.0695873
0.0652987
0.0614158
0.0567375
0.0507857
0.0435734
0.0355332
0.0274747
0.0203295
0.0148153
0.0110657
0.00872896
0.00774267
0.00856893
0.0112849
0.0148736
0.0180499
0.0205432
0.0227522
0.0245156
0.0252993
0.0253186
0.0253178
0.0252974
0.0245132
0.02275
0.0205415
0.0180492
0.0148739
0.0112864
0.00857151
0.00774617
0.00873312
0.01107
0.0148192
0.0203323
0.0274763
0.0355336
0.0435729
0.0507845
0.0567358
0.0614136
0.0652963
0.0695849
0.0759803
0.0859311
0.099764
0.116234
0.132852
0.146844
0.156233
0.160605
0.160641
0.156847
0.149127
0.137565
0.123605
0.110216
0.100241
0.0943252
0.0906946
0.086893
0.0817888
0.0760801
0.0708075
0.065559
0.0585076
0.0480669
0.0346668
0.021002
0.0101048
0.0028301
0.0014613
0.00621063
0.0150254
0.0268603
0.0382003
0.0459889
0.0498913
0.0520548
0.0550251
0.0596722
0.0649651
0.0698897
0.0751893
0.083029
0.0950077
0.110316
0.125882
0.138514
0.146664
0.150286
0.14956
0.143986
0.132852
0.11671
0.0979836
0.0800504
0.0658472
0.0566755
0.0518721
0.0494887
0.0475157
0.0447997
0.0409868
0.0359045
0.0295164
0.0221903
0.0146255
0.00756769
0.00151986
-0.00324106
-0.00627645
-0.00701033
-0.0053917
-0.00229412
0.00117413
0.00465666
0.00826067
0.0115696
0.0137954
0.0147346
0.0147338
0.0137933
0.011567
0.00825829
0.00465511
0.00117381
-0.00229301
-0.00538926
-0.00700685
-0.00627224
-0.00323639
0.00152453
0.00757168
0.0146282
0.0221913
0.0295158
0.0359028
0.0409846
0.0447974
0.0475135
0.0494866
0.0518702
0.056674
0.0658464
0.0800504
0.097984
0.116711
0.132852
0.143986
0.14956
0.150286
0.146663
0.138512
0.12588
0.110315
0.0950072
0.0830291
0.0751896
0.0698897
0.0649649
0.059672
0.0550255
0.052056
0.0498928
0.0459902
0.0382006
0.0268595
0.0150239
0.00620921
0.00146071
0.000344654
0.00301381
0.0100246
0.0200744
0.0291504
0.033854
0.0339894
0.0323514
0.032347
0.0354699
0.0408022
0.0469804
0.054208
0.0641765
0.0782038
0.0953562
0.112474
0.126226
0.134879
0.138263
0.136565
0.129395
0.116234
0.0979836
0.0775494
0.0587364
0.0446354
0.0363983
0.0330393
0.0323112
0.0321332
0.031512
0.0301415
0.0274892
0.0229148
0.0163242
0.00827066
-0.000362546
-0.00866451
-0.015797
-0.0209402
-0.0234659
-0.0232972
-0.0210476
-0.0175541
-0.0132353
-0.00831735
-0.00352806
6.83219e-05
0.00187371
0.00187306
6.66389e-05
-0.00353012
-0.00831908
-0.0132361
-0.0175535
-0.0210456
-0.0232938
-0.0234617
-0.0209356
-0.0157925
-0.00866031
-0.000359251
0.00827254
0.0163244
0.0229134
0.0274867
0.0301385
0.0315092
0.032131
0.0323096
0.0330381
0.0363976
0.0446351
0.0587366
0.0775499
0.097984
0.116234
0.129394
0.136564
0.138261
0.134877
0.126224
0.112472
0.0953549
0.0782032
0.0641765
0.0542082
0.0469805
0.0408025
0.0354706
0.0323485
0.0323536
0.0339918
0.033856
0.0291514
0.0200743
0.0100237
0.00301284
0.000344235
-0.000351922
0.00101498
0.0068332
0.015487
0.0224533
0.0239972
0.0200817
0.0141992
0.0107167
0.0118861
0.0170007
0.0243243
0.0333909
0.0452925
0.061045
0.0797047
0.0982028
0.113155
0.122541
0.125884
0.123303
0.114631
0.0997643
0.0800504
0.0587364
0.0397318
0.0259711
0.0183525
0.0157319
0.0158822
0.0169137
0.0180508
0.0189339
0.0185868
0.0158008
0.0101262
0.00204657
-0.00744614
-0.0171912
-0.0260241
-0.0329371
-0.0372995
-0.0389283
-0.0380743
-0.0352383
-0.030863
-0.0254658
-0.0200158
-0.0157368
-0.0134689
-0.0134692
-0.0157375
-0.0200165
-0.0254661
-0.0308625
-0.0352366
-0.0380713
-0.0389242
-0.0372949
-0.0329326
-0.0260201
-0.0171881
-0.00744418
0.00204721
0.0101254
0.0157989
0.018584
0.0189308
0.018048
0.0169117
0.0158812
0.0157316
0.0183526
0.0259715
0.0397322
0.0587366
0.0800504
0.099764
0.114631
0.123301
0.125882
0.122538
0.113152
0.0982001
0.079703
0.0610444
0.0452927
0.0333913
0.0243248
0.0170015
0.0118876
0.0107191
0.0142022
0.0200849
0.0239998
0.0224548
0.0154874
0.00683288
0.00101445
-0.00035218
-0.000517027
0.000547311
0.00601454
0.0139282
0.0192713
0.0179835
0.0101718
2.02481e-06
-0.00719997
-0.00837353
-0.00393567
0.00403745
0.01438
0.0275667
0.0443747
0.0639917
0.0835913
0.0997993
0.110242
0.114005
0.111075
0.101584
0.0859321
0.0658472
0.0446354
0.0259711
0.0124473
0.00477336
0.00190932
0.00195519
0.00339208
0.00564883
0.00823247
0.00976274
0.00864037
0.00422228
-0.00306791
-0.0122936
-0.0223202
-0.0319376
-0.0401164
-0.0462268
-0.0499023
-0.0509837
-0.0496258
-0.0462525
-0.0415659
-0.0366251
-0.0326281
-0.0304538
-0.0304536
-0.0326275
-0.0366241
-0.0415644
-0.0462503
-0.0496229
-0.0509799
-0.0498978
-0.0462223
-0.0401124
-0.0319346
-0.0223184
-0.0122932
-0.00306863
0.00422067
0.00863815
0.00976014
0.00822978
0.00564645
0.00339042
0.00195448
0.00190949
0.0047741
0.0124482
0.0259715
0.0446351
0.0658464
0.085931
0.101583
0.111073
0.114003
0.110239
0.0997958
0.0835884
0.06399
0.0443744
0.0275672
0.0143809
0.00403844
-0.0039343
-0.00837141
-0.00719696
5.63764e-06
0.0101754
0.0179864
0.0192733
0.0139291
0.00601472
0.000547183
-0.000517129
-0.000141561
0.00164437
0.00765126
0.0155875
0.0200018
0.0165432
0.00542225
-0.00862888
-0.0194486
-0.0232298
-0.0200573
-0.0122389
-0.0015328
0.0120148
0.029043
0.0489695
0.0692881
0.0866747
0.098403
0.103095
0.100576
0.091256
0.0759821
0.0566755
0.0363983
0.0183525
0.00477336
-0.00363356
-0.00754987
-0.00835647
-0.00715458
-0.00438246
-0.000708125
0.002202
0.00258023
-0.000267852
-0.00602825
-0.0140226
-0.0233955
-0.0330909
-0.042129
-0.0498404
-0.0556349
-0.0589751
-0.0597159
-0.0582225
-0.0552529
-0.0518012
-0.0488851
-0.0472625
-0.0472619
-0.0488833
-0.0517985
-0.0552495
-0.0582187
-0.0597117
-0.0589707
-0.0556305
-0.0498364
-0.0421257
-0.0330889
-0.0233949
-0.0140234
-0.00603009
-0.000270189
0.00257785
0.0021998
-0.000710067
-0.00438408
-0.00715576
-0.00835702
-0.00754971
-0.00363287
0.0047741
0.0183526
0.0363976
0.056674
0.0759802
0.0912539
0.100574
0.103092
0.0983998
0.0866715
0.0692856
0.0489684
0.0290432
0.0120158
-0.00153144
-0.0122374
-0.0200554
-0.0232272
-0.0194453
-0.0086252
0.00542577
0.0165461
0.0200038
0.0155887
0.00765191
0.00164465
-0.000141497
0.000715978
0.00414223
0.0115068
0.0202114
0.0244595
0.0196634
0.00607806
-0.0111628
-0.0252626
-0.0317972
-0.0304929
-0.0237205
-0.0136282
-0.000640989
0.0158105
0.0353994
0.0559591
0.0742606
0.0872976
0.0932776
0.0918353
0.0835535
0.0695873
0.0518721
0.0330393
0.0157319
0.00190932
-0.00754987
-0.0128206
-0.0147188
-0.0139858
-0.0110151
-0.00665372
-0.00272512
-0.000992307
-0.00212468
-0.00598256
-0.0122836
-0.0205793
-0.0300302
-0.0396842
-0.0487848
-0.0565446
-0.0621607
-0.0652715
-0.0661444
-0.0654671
-0.0640538
-0.0626604
-0.0618429
-0.0618418
-0.0626575
-0.0640496
-0.0654621
-0.0661391
-0.0652662
-0.0621559
-0.0565405
-0.0487815
-0.039682
-0.0300293
-0.0205797