/*--------------------------------*- C++ -*----------------------------------*\
  =========                 |
  \\      /  F ield         | OpenFOAM: The Open Source CFD Toolbox
   \\    /   O peration     | Website:  https://openfoam.org
    \\  /    A nd           | Version:  10
     \\/     M anipulation  |
\*---------------------------------------------------------------------------*/
FoamFile
{
    format      ascii;
    class       volScalarField;
    location    "31";
    object      h_0;
}
// * * * * * * * * * * * * * * * * * * * * * * * * * * * * * * * * * * * * * //

dimensions      [0 1 0 0 0 0 0];

internalField   nonuniform List<scalar> 
10000
(
-0.000594757
-0.000669896
-5.89602e-05
-0.000184767
0.000112468
0.000797077
0.00050389
-0.000348868
-0.00078707
-0.000260982
0.000275782
-0.000500822
-0.000682973
0.000595657
0.000730461
-0.000414474
-0.000591765
0.000510706
0.00096525
-3.6396e-05
-0.000691498
-0.000358738
-0.000444343
-0.00118254
-0.00124727
-0.000742215
-0.000887235
-0.00176104
-0.00205779
-0.000405731
0.00203366
0.00362245
0.00302697
0.000274774
-0.00322348
-0.00590125
-0.00588871
-0.0033898
0.000457775
0.00340727
0.00467897
0.00467555
0.00471179
0.00538781
0.00613564
0.0057763
0.00345587
-0.000450367
-0.00460014
-0.00724243
-0.00724243
-0.00460015
-0.000450379
0.00345584
0.00577626
0.00613561
0.00538781
0.00471184
0.00467568
0.00467916
0.00340746
0.000457924
-0.00338974
-0.00588863
-0.00590109
-0.00322304
0.000275438
0.0030278
0.00362318
0.00203401
-0.000405804
-0.0020582
-0.0017614
-0.000887503
-0.00074252
-0.00124768
-0.00118289
-0.00044442
-0.000358757
-0.000691584
-3.61844e-05
0.000965753
0.000510891
-0.000592046
-0.000414649
0.000730872
0.000596008
-0.000683343
-0.00050101
0.000276094
-0.000261138
-0.000787664
-0.000349113
0.000504327
0.0007977
0.000112537
-0.000184871
-5.89705e-05
-0.000670494
-0.000595292
-0.000669896
-0.000242298
0.000619375
-0.000467696
-0.000485618
0.000621514
0.000224839
-0.000658046
-0.000718452
0.000312695
0.000883809
-0.000971199
-0.0015236
0.000923245
0.00108909
-0.00154338
-0.00194524
0.000557273
0.00135011
-0.00092139
-0.0019389
-0.000441469
0.000146707
-0.000862806
-0.000541411
0.000666338
-0.000316525
-0.00360617
-0.00545656
-0.00252227
0.00256842
0.00550833
0.00280365
-0.00535198
-0.0154652
-0.0227413
-0.0223172
-0.0142557
-0.00214132
0.00781725
0.0130074
0.0144193
0.0156524
0.0183457
0.0210521
0.0203642
0.0140084
0.0029609
-0.0088253
-0.0163729
-0.0163729
-0.00882519
0.00296107
0.0140085
0.0203643
0.0210523
0.0183459
0.0156526
0.0144196
0.0130077
0.00781733
-0.00214161
-0.0142565
-0.0223183
-0.0227423
-0.0154655
-0.00535158
0.00280463
0.00550933
0.00256877
-0.00252269
-0.0054574
-0.00360648
-0.000316187
0.000666771
-0.000541341
-0.000862875
0.000146918
-0.000441498
-0.00193941
-0.000921423
0.00135086
0.000557545
-0.00194604
-0.00154393
0.00108988
0.000923862
-0.00152445
-0.000971644
0.000884572
0.000313013
-0.000718937
-0.000658486
0.000225149
0.000622073
-0.000486006
-0.000468
0.000619964
-0.000242511
-0.000670488
-5.89602e-05
0.000619375
0.000844043
-0.000459094
-0.000812196
-0.000333495
-0.000486453
-0.000315033
0.000195915
0.000466546
0.000224667
-0.00094088
-0.00108855
0.000481517
0.000359331
-0.00186118
-0.00200585
0.000278674
0.00053672
-0.00175181
-0.00243304
-0.000666381
0.000145638
-0.000562999
-1.60336e-05
0.00113121
-0.000467465
-0.00480066
-0.00694563
-0.00354558
0.00261647
0.00579211
0.00135518
-0.0105651
-0.0257847
-0.0366287
-0.0364207
-0.0240071
-0.00513605
0.011438
0.0209026
0.024404
0.0268593
0.0307701
0.0343176
0.0325229
0.0222537
0.00488665
-0.0134227
-0.0251449
-0.0251448
-0.0134225
0.00488701
0.0222541
0.0325233
0.034318
0.0307703
0.0268595
0.0244043
0.0209029
0.011438
-0.00513671
-0.0240086
-0.0364228
-0.0366307
-0.0257857
-0.0105649
0.00135628
0.00579336
0.00261697
-0.00354608
-0.00694659
-0.00480102
-0.000466804
0.00113216
-1.5522e-05
-0.000562798
0.000145942
-0.000666392
-0.00243367
-0.00175219
0.000537204
0.000279048
-0.00200651
-0.0018618
0.000359843
0.000482043
-0.001089
-0.00094135
0.000224896
0.000467068
0.000196285
-0.000315148
-0.000486682
-0.000333582
-0.00081275
-0.000459454
0.000844751
0.000619969
-5.89658e-05
-0.000184767
-0.000467696
-0.000459094
1.12012e-05
0.000335553
-3.77828e-06
-0.000209844
-0.000131923
-0.000383756
-0.000831853
-0.00103807
-0.000558464
1.13919e-05
-0.000196652
-0.000691835
-0.000978904
-0.000577567
0.00017154
-0.000246592
-0.00153929
-0.00196822
-0.00143483
-0.00160212
-0.00240673
-0.00246817
-0.00216495
-0.00343045
-0.00613157
-0.00641405
-0.00238172
0.00392226
0.00697857
0.00215195
-0.011155
-0.0289796
-0.0422785
-0.0431438
-0.0288588
-0.00595676
0.0157019
0.0291565
0.0349585
0.0379622
0.0414142
0.043597
0.0392394
0.024873
0.00228007
-0.021043
-0.0358709
-0.0358708
-0.0210427
0.00228048
0.0248735
0.03924
0.0435975
0.0414146
0.0379625
0.0349589
0.029157
0.0157021
-0.0059572
-0.0288602
-0.0431458
-0.0422802
-0.02898
-0.0111538
0.00215409
0.00698077
0.00392358
-0.00238172
-0.00641491
-0.00613247
-0.00343071
-0.00216489
-0.0024683
-0.00240704
-0.00160227
-0.0014348
-0.00196834
-0.00153942
-0.000246295
0.00017208
-0.000577433
-0.000979194
-0.000692026
-0.000196372
1.18482e-05
-0.000558534
-0.00103856
-0.00083213
-0.000383678
-0.000131829
-0.000209946
-3.63766e-06
0.000336007
1.12735e-05
-0.000459455
-0.000468
-0.000184874
0.000112468
-0.000485618
-0.000812196
0.000335553
0.000388224
-0.000583685
-0.000312803
-9.53212e-05
-0.000567455
-0.000768672
-0.000806939
-3.3253e-05
0.000191689
-0.00151341
-0.00199192
-0.000461684
-5.37991e-05
-0.00122074
-0.0019463
-0.00164542
-0.00125343
-0.00121318
-0.00131725
-0.00153509
-0.00234406
-0.0033033
-0.00425197
-0.00522403
-0.00508365
-0.00333663
-0.00044341
9.89055e-05
-0.00541703
-0.0185936
-0.0361868
-0.0497599
-0.0507596
-0.0354168
-0.00926391
0.0177757
0.0371027
0.0474618
0.0522992
0.0551639
0.0550417
0.0477453
0.0301428
0.00444138
-0.0215368
-0.0379037
-0.0379037
-0.0215365
0.00444195
0.0301436
0.0477463
0.0550427
0.0551647
0.0522998
0.0474623
0.0371031
0.0177758
-0.00926472
-0.0354187
-0.0507624
-0.0497623
-0.0361881
-0.0185933
-0.00541567
0.000100452
-0.000442346
-0.00333636
-0.00508396
-0.00522459
-0.00425228
-0.00330321
-0.00234375
-0.00153485
-0.00131717
-0.00121297
-0.00125324
-0.00164561
-0.00194669
-0.00122067
-5.31454e-05
-0.000461518
-0.00199276
-0.00151378
0.000192366
-3.28864e-05
-0.000807164
-0.00076892
-0.00056753
-9.51032e-05
-0.000312913
-0.000583975
0.00038877
0.000336005
-0.00081275
-0.000486007
0.000112532
0.000797077
0.000621514
-0.000333495
-3.77828e-06
-0.000583685
-0.00123982
-0.000310626
8.78694e-05
-0.000224005
-0.000493605
-0.000790601
-0.000195989
-0.000367544
-0.00208776
-0.00195425
-6.26956e-05
-0.000241
-0.00243579
-0.00315625
-0.00191845
-0.00118379
-0.00144786
-0.00137964
-0.00158568
-0.00334194
-0.00483136
-0.00442721
-0.00300734
-0.00267408
-0.00381489
-0.00507716
-0.00741824
-0.0132462
-0.0248649
-0.040049
-0.0522803
-0.0534113
-0.038981
-0.0120997
0.0185372
0.0434731
0.0586822
0.0651544
0.0660741
0.0618398
0.050441
0.0299652
0.00290555
-0.0234965
-0.0398922
-0.0398922
-0.0234962
0.00290614
0.0299662
0.0504423
0.0618412
0.0660754
0.0651553
0.0586828
0.0434734
0.0185371
-0.0121007
-0.0389832
-0.0534143
-0.0522831
-0.0400508
-0.0248652
-0.0132455
-0.00741727
-0.00507626
-0.00381415
-0.00267351
-0.00300723
-0.00442751
-0.00483157
-0.00334166
-0.00158511
-0.00137931
-0.0014476
-0.00118349
-0.00191868
-0.00315709
-0.0024362
-0.000240295
-6.20374e-05
-0.00195484
-0.00208846
-0.000367197
-0.000195638
-0.000790755
-0.000493645
-0.00022382
8.83269e-05
-0.00031054
-0.00124052
-0.000583975
-3.64064e-06
-0.00033358
0.000622075
0.000797698
0.00050389
0.000224839
-0.000486453
-0.000209844
-0.000312803
-0.000310626
-0.000146552
-0.000596352
-0.000811451
-0.00105817
-0.00106728
-0.000451406
-0.000902445
-0.00168403
-0.00102177
-6.89741e-05
-0.000726538
-0.00253265
-0.00286435
-0.0017059
-0.00156373
-0.00251661
-0.00307142
-0.00424666
-0.00666171
-0.00747945
-0.00494135
-0.00114201
-0.000605913
-0.00388438
-0.00837441
-0.01297
-0.0186684
-0.0277263
-0.0388578
-0.0482264
-0.0492916
-0.0373161
-0.0122609
0.0196717
0.0489725
0.0685001
0.0760001
0.073689
0.063802
0.0473266
0.0243612
-0.00242795
-0.0271544
-0.0421551
-0.0421551
-0.0271543
-0.00242755
0.0243621
0.047328
0.0638036
0.0736905
0.0760013
0.0685009
0.0489728
0.0196715
-0.012262
-0.037318
-0.0492941
-0.0482287
-0.0388592
-0.0277265
-0.0186677
-0.0129689
-0.00837315
-0.00388295
-0.000604456
-0.00114123
-0.0049418
-0.00748056
-0.00666256
-0.00424681
-0.00307132
-0.00251646
-0.00156333
-0.00170574
-0.00286483
-0.00253306
-0.000726119
-6.81984e-05
-0.00102167
-0.00168457
-0.000902429
-0.000450994
-0.0010674
-0.00105844
-0.000811606
-0.000596367
-0.000146253
-0.000310537
-0.000312916
-0.000209948
-0.000486676
0.000225151
0.000504327
-0.000348868
-0.000658046
-0.000315033
-0.000131923
-9.53212e-05
8.78694e-05
-0.000596352
-0.00120505
-0.000856031
-0.000690824
-0.000474659
-0.000840156
-0.00190579
-0.00158008
-0.000836193
-0.00122392
-0.0021693
-0.00287614
-0.0023906
-0.00140342
-0.00154083
-0.00251354
-0.00331899
-0.00484151
-0.00684058
-0.00695845
-0.00411019
-0.000928041
-0.00237112
-0.00849025
-0.0164982
-0.0236691
-0.0296303
-0.0355034
-0.0408516
-0.044913
-0.0437894
-0.0332986
-0.0101705
0.0224309
0.0559013
0.0800664
0.0892218
0.0840099
0.0686119
0.04739
0.023052
-0.0015958
-0.0225725
-0.0348254
-0.0348255
-0.0225725
-0.00159546
0.0230529
0.0473916
0.068614
0.0840121
0.0892237
0.0800677
0.0559019
0.0224306
-0.0101717
-0.0333005
-0.0437918
-0.0449155
-0.0408536
-0.0355048
-0.0296309
-0.0236691
-0.0164977
-0.0084891
-0.00236949
-0.000926596
-0.00410992
-0.00695919
-0.00684145
-0.00484176
-0.00331871
-0.00251316
-0.00154032
-0.00140296
-0.00239073
-0.00287668
-0.00216956
-0.00122351
-0.000835631
-0.00158042
-0.00190643
-0.000839887
-0.000474183
-0.000690738
-0.000856247
-0.00120554
-0.000596365
8.83279e-05
-9.51065e-05
-0.000131826
-0.000315144
-0.000658492
-0.000349115
-0.00078707
-0.000718452
0.000195915
-0.000383756
-0.000567455
-0.000224005
-0.000811451
-0.000856031
-0.000500619
-0.000551137
-0.000639129
-0.00179102
-0.00228769
-0.000836027
-0.000685327
-0.0023231
-0.00343531
-0.00313583
-0.00204589
-0.00154055
-0.00231309
-0.00370772
-0.00472431
-0.00546432
-0.00576574
-0.00526639
-0.00336903
-0.00206807
-0.00506441
-0.0125593
-0.0228069
-0.0319755
-0.0383912
-0.0410674
-0.0405752
-0.0387442
-0.0350113
-0.0261745
-0.00638768
0.024415
0.0594838
0.0863587
0.0963454
0.0879871
0.0672132
0.0415114
0.0165631
-0.00475583
-0.0205986
-0.0291947
-0.0291948
-0.0205988
-0.00475572
0.0165639
0.0415129
0.0672155
0.0879897
0.0963478
0.0863604
0.0594845
0.0244146
-0.00638895
-0.0261763
-0.0350133
-0.0387465
-0.0405776
-0.0410697
-0.0383928
-0.0319762
-0.0228068
-0.0125583
-0.00506281
-0.00206631
-0.00336795
-0.00526629
-0.0057662
-0.00546479
-0.00472438
-0.00370751
-0.00231261
-0.00153987
-0.00204563
-0.00313644
-0.00343622
-0.00232318
-0.00068434
-0.000835565
-0.00228857
-0.0017915
-0.000638659
-0.000550752
-0.000500513
-0.00085625
-0.000811605
-0.00022382
-0.000567529
-0.000383673
0.00019628
-0.000718946
-0.000787661
-0.000260982
0.000312695
0.000466546
-0.000831853
-0.000768672
-0.000493605
-0.00105817
-0.000690824
-0.000551137
-0.00103117
-0.00151351
-0.00221517
-0.00137146
-0.000133467
-0.00123475
-0.00311521
-0.00356419
-0.00248114
-0.00154994
-0.00214394
-0.00418247
-0.00651569
-0.00748458
-0.00640153
-0.00461576
-0.00421487
-0.00428531
-0.00503436
-0.00821912
-0.0155523
-0.0266696
-0.0371476
-0.0436625
-0.0431047
-0.0371725
-0.029402
-0.0227821
-0.015088
0.000521075
0.0273721
0.0609378
0.0881319
0.0979308
0.0867671
0.0615405
0.0322919
0.00756469
-0.00962861
-0.0195579
-0.0239974
-0.0239976
-0.0195583
-0.00962884
0.00756503
0.0322931
0.0615425
0.0867696
0.0979335
0.0881338
0.0609386
0.0273717
0.000519878
-0.0150895
-0.0227836
-0.0294038
-0.0371749
-0.0431073
-0.0436646
-0.0371485
-0.0266692
-0.0155509
-0.00821741
-0.00503265
-0.00428385
-0.00421401
-0.00461566
-0.00640232
-0.00748569
-0.00651643
-0.00418244
-0.00214308
-0.00154898
-0.00248116
-0.00356517
-0.00311591
-0.00123408
-0.000132195
-0.00137149
-0.00221608
-0.00151374
-0.00103089
-0.000550753
-0.000690738
-0.00105844
-0.000493648
-0.000768921
-0.000832129
0.000467064
0.000313016
-0.00026113
0.000275782
0.000883809
0.000224667
-0.00103807
-0.000806939
-0.000790601
-0.00106728
-0.000474659
-0.000639129
-0.00151351
-0.00206108
-0.00171064
-0.000682597
-0.00132074
-0.00316653
-0.00374931
-0.00278359
-0.0014884
-0.0015219
-0.00303585
-0.00544026
-0.0076523
-0.00773932
-0.00494971
-0.00265796
-0.00431511
-0.00801925
-0.0115227
-0.0149506
-0.0221426
-0.0335091
-0.0444448
-0.0496377
-0.0450637
-0.0333128
-0.0190458
-0.00814216
0.000455109
0.0127921
0.0349578
0.0646563
0.0903075
0.0993956
0.0867724
0.0590293
0.0280606
0.00458906
-0.00793645
-0.0117459
-0.0119175
-0.0119177
-0.0117463
-0.00793682
0.00458921
0.0280616
0.0590313
0.0867752
0.0993988
0.0903102
0.0646578
0.034958
0.0127915
0.000454229
-0.00814306
-0.0190471
-0.0333152
-0.0450671
-0.0496411
-0.0444469
-0.0335094
-0.0221416
-0.0149493
-0.0115217
-0.00801808
-0.00431361
-0.00265664
-0.0049496
-0.00774048
-0.0076536
-0.00544075
-0.0030352
-0.00152055
-0.00148748
-0.00278393
-0.00375047
-0.00316715
-0.00131992
-0.000681583
-0.00171091
-0.00206187
-0.00151374
-0.000638658
-0.00047418
-0.0010674
-0.000790762
-0.000807167
-0.00103856
0.000224898
0.00088458
0.000276097
-0.000500822
-0.000971199
-0.00094088
-0.000558464
-3.3253e-05
-0.000195989
-0.000451406
-0.000840156
-0.00179102
-0.00221517
-0.00171064
-0.00064016
-0.000839276
-0.00315614
-0.00447504
-0.00338092
-0.00169092
-0.00153769
-0.00325792
-0.00513964
-0.00651187
-0.00728523
-0.00635205
-0.0032559
-0.00202568
-0.00590921
-0.012528
-0.0178135
-0.0212994
-0.0281904
-0.0389969
-0.0492568
-0.0520126
-0.0438599
-0.02754
-0.00841077
0.00638671
0.0162515
0.0252905
0.0411432
0.0639059
0.0853259
0.0926533
0.0797763
0.0516556
0.021026
-0.000250497
-0.00800315
-0.00610463
-0.00231639
-0.00231661
-0.00610514
-0.0080037
-0.000250661
0.0210265
0.0516572
0.0797789
0.0926565
0.0853288
0.0639079
0.041144
0.0252904
0.0162512
0.00638627
-0.00841172
-0.0275423
-0.0438636
-0.0520168
-0.04926
-0.038998
-0.0281899
-0.0212985
-0.0178131
-0.0125274
-0.00590765
-0.00202351
-0.0032545
-0.00635231
-0.00728642
-0.00651291
-0.00513989
-0.00325715
-0.00153629
-0.00169012
-0.00338165
-0.00447664
-0.00315665
-0.00083804
-0.00063908
-0.00171091
-0.00221608
-0.00179151
-0.000839887
-0.000450993
-0.000195637
-3.28815e-05
-0.000558532
-0.000941354
-0.000971646
-0.000501015
-0.000682973
-0.0015236
-0.00108855
1.13919e-05
0.000191689
-0.000367544
-0.000902445
-0.00190579
-0.00228769
-0.00137146
-0.000682597
-0.000839276
-0.0023655
-0.00421519
-0.00384245
-0.00192047
-0.00112842
-0.00311418
-0.00640061
-0.00798423
-0.00726447
-0.00600344
-0.00494261
-0.00342722
-0.00388937
-0.0086237
-0.016318
-0.0226208
-0.026831
-0.0334009
-0.042675
-0.0506104
-0.0499747
-0.0388394
-0.0194052
0.00272522
0.020863
0.0320865
0.0381647
0.0465256
0.0600701
0.0748562
0.0796471
0.0677581
0.0416706
0.0135627
-0.00459022
-0.00784535
-0.00113677
0.00593295
0.00593273
-0.00113733
-0.00784606
-0.00459074
0.0135627
0.0416715
0.06776
0.0796498
0.074859
0.0600723
0.046527
0.0381652
0.0320867
0.0208629
0.0027245
-0.0194072
-0.038843
-0.0499792
-0.0506144
-0.0426769
-0.0334008
-0.0268299
-0.02262
-0.0163174
-0.00862239
-0.00388723
-0.00342513
-0.0049417
-0.00600387
-0.00726584
-0.00798579
-0.00640125
-0.00311321
-0.00112663
-0.00191972
-0.00384355
-0.00421674
-0.00236555
-0.000838039
-0.000681581
-0.0013715
-0.00228857
-0.00190643
-0.000902427
-0.000367191
0.000192373
1.18453e-05
-0.00108901
-0.00152446
-0.000683348
0.000595657
0.000923245
0.000481517
-0.000196652
-0.00151341
-0.00208776
-0.00168403
-0.00158008
-0.000836027
-0.000133467
-0.00132074
-0.00315614
-0.00421519
-0.00369843
-0.00190606
-0.000912515
-0.00201335
-0.00519472
-0.00848494
-0.00888643
-0.00604808
-0.00380323
-0.0045804
-0.00660842
-0.00902284
-0.0133739
-0.0209954
-0.028622
-0.0343923
-0.0399358
-0.045674
-0.0487306
-0.0435287
-0.0293668
-0.00775458
0.0162759
0.03729
0.0499394
0.0535909
0.0539436
0.0569851
0.063297
0.0650437
0.0551424
0.0334111
0.0098054
-0.00439251
-0.0037854
0.00647509
0.0158475
0.0158474
0.00647459
-0.0037861
-0.00439319
0.00980509
0.0334116
0.0551439
0.0650461
0.0632999
0.0569878
0.0539459
0.0535926
0.0499406
0.0372906
0.0162757
-0.00775605
-0.0293699
-0.0435329
-0.048735
-0.0456772
-0.039937
-0.034392
-0.0286212
-0.0209947
-0.0133731
-0.00902165
-0.00660669
-0.00457854
-0.0038021
-0.00604857
-0.00888839
-0.00848679
-0.00519488
-0.0020117
-0.0009105
-0.00190541
-0.00369958
-0.00421675
-0.00315665
-0.00131992
-0.000132194
-0.000835562
-0.00158042
-0.00168457
-0.00208847
-0.00151379
-0.000196375
0.000482046
0.00092387
0.000596011
0.000730461
0.00108909
0.000359331
-0.000691835
-0.00199192
-0.00195425
-0.00102177
-0.000836193
-0.000685327
-0.00123475
-0.00316653
-0.00447504
-0.00384245
-0.00190606
-0.00109005
-0.00262601
-0.004965
-0.00704856
-0.00826285
-0.00703942
-0.0034924
-0.00213007
-0.00592449
-0.011741
-0.0154217
-0.0185696
-0.0257775
-0.0352738
-0.0427776
-0.046188
-0.046464
-0.0431471
-0.0334537
-0.0170968
0.00517915
0.0297306
0.0522109
0.0656178
0.0667929
0.0591841
0.0513142
0.0482704
0.0467831
0.0398129
0.0245686
0.00737482
-0.00199296
0.00182396
0.014297
0.0248907
0.0248906
0.0142966
0.00182333
-0.00199373
0.00737422
0.0245686
0.0398137
0.0467849
0.0482729
0.0513171
0.0591871
0.0667957
0.0656201
0.0522123
0.0297309
0.00517824
-0.0170991
-0.0334572
-0.0431516
-0.0464684
-0.0461912
-0.0427789
-0.0352734
-0.0257765
-0.0185689
-0.0154215
-0.0117404
-0.00592247
-0.00212743
-0.00349101
-0.00704024
-0.00826481
-0.00704998
-0.00496499
-0.00262457
-0.00108818
-0.00190541
-0.00384356
-0.00447664
-0.00316715
-0.00123408
-0.000684335
-0.000835628
-0.00102168
-0.00195485
-0.00199276
-0.000692026
0.000359851
0.00108989
0.000730873
-0.000414474
-0.00154338
-0.00186118
-0.000978904
-0.000461684
-6.26956e-05
-6.89741e-05
-0.00122392
-0.0023231
-0.00311521
-0.00374931
-0.00338092
-0.00192047
-0.000912515
-0.00262601
-0.00626004
-0.00849278
-0.00813543
-0.00664758
-0.00481972
-0.00257914
-0.00293221
-0.00854406
-0.0161231
-0.0200987
-0.0224107
-0.0297548
-0.0413224
-0.0499931
-0.0502691
-0.0441628
-0.0344642
-0.0212499
-0.00393747
0.0177387
0.0415546
0.0639119
0.0770493
0.075596
0.0608318
0.0427003
0.0305161
0.0258473
0.022569
0.01536
0.006196
0.0023512
0.00875833
0.0220736
0.0328004
0.0328003
0.0220733
0.00875781
0.00235041
0.00619516
0.0153595
0.0225691
0.0258482
0.0305179
0.0427029
0.0608351
0.0755995
0.0770523
0.0639139
0.0415551
0.0177381
-0.00393917
-0.0212526
-0.0344682
-0.0441677
-0.0502739
-0.0499964
-0.041323
-0.0297532
-0.0224091
-0.0200984
-0.0161232
-0.00854267
-0.00292928
-0.00257646
-0.00481883
-0.00664854
-0.00813743
-0.00849466
-0.0062605
-0.00262458
-0.000910503
-0.00191971
-0.00338164
-0.00375047
-0.00311591
-0.00232318
-0.00122351
-6.81969e-05
-6.20307e-05
-0.000461512
-0.000979196
-0.0018618
-0.00154393
-0.000414657
-0.000591765
-0.00194524
-0.00200585
-0.000577567
-5.37991e-05
-0.000241
-0.000726538
-0.0021693
-0.00343531
-0.00356419
-0.00278359
-0.00169092
-0.00112842
-0.00201335
-0.004965
-0.00849278
-0.0094728
-0.00700499
-0.0044859
-0.00453413
-0.00575234
-0.00800625
-0.0133309
-0.0204898
-0.0246632
-0.0270728
-0.0341959
-0.0457764
-0.0530652
-0.0487094
-0.0359172
-0.0205485
-0.00504791
0.0120166
0.0318826
0.0534419
0.0735618
0.084613
0.0799237
0.0588397
0.0316569
0.0109939
0.00313356
0.00365058
0.00514896
0.00496538
0.00701994
0.0153767
0.0282274
0.0380567
0.0380567
0.0282273
0.0153763
0.00701917
0.00496436
0.00514796
0.00364993
0.00313356
0.0109949
0.031659
0.058843
0.0799277
0.0846168
0.0735645
0.053443
0.0318825
0.0120157
-0.00504954
-0.0205513
-0.0359216
-0.048715
-0.0530702
-0.0457785
-0.0341949
-0.0270707
-0.0246622
-0.0204899
-0.0133306
-0.00800465
-0.00574997
-0.00453204
-0.00448501
-0.007006
-0.00947517
-0.00849466
-0.00496499
-0.0020117
-0.00112662
-0.00169012
-0.00278393
-0.00356518
-0.00343622
-0.00216956
-0.000726117
-0.000240287
-5.31415e-05
-0.000577438
-0.00200652
-0.00194605
-0.000592052
0.000510706
0.000557273
0.000278674
0.00017154
-0.00122074
-0.00243579
-0.00253265
-0.00287614
-0.00313583
-0.00248114
-0.0014884
-0.00153769
-0.00311418
-0.00519472
-0.00704856
-0.00813543
-0.00700499
-0.00365268
-0.00217325
-0.00564259
-0.0110881
-0.0149007
-0.0189379
-0.0256338
-0.031661
-0.0355802
-0.0413321
-0.0494848
-0.0522182
-0.0421682
-0.0230405
-0.00283324
0.0144273
0.030849
0.0483579
0.0665838
0.0826337
0.0900055
0.0816552
0.0555588
0.0211885
-0.00668132
-0.0176507
-0.01371
-0.00361117
0.0054907
0.0135504
0.0232764
0.0345575
0.0426066
0.0426066
0.0345575
0.0232762
0.0135497
0.00548963
-0.00361244
-0.0137112
-0.0176515
-0.0066812
0.02119
0.0555619
0.0816595
0.0900101
0.0826373
0.066586
0.0483589
0.0308492
0.014427
-0.00283451
-0.0230438
-0.0421736
-0.0522243
-0.0494891
-0.0413333
-0.0355792
-0.0316597
-0.0256333
-0.018938
-0.0149007
-0.0110871
-0.00564013
-0.00217041
-0.0036514
-0.00700599
-0.00813743
-0.00704998
-0.00519488
-0.0031132
-0.00153629
-0.00148748
-0.00248115
-0.00313643
-0.00287669
-0.00253306
-0.0024362
-0.00122067
0.000172077
0.000279056
0.000557552
0.000510895
0.00096525
0.00135011
0.00053672
-0.000246592
-0.0019463
-0.00315625
-0.00286435
-0.0023906
-0.00204589
-0.00154994
-0.0015219
-0.00325792
-0.00640061
-0.00848494
-0.00826285
-0.00664758
-0.0044859
-0.00217325
-0.00247728
-0.00802087
-0.0153541
-0.0191489
-0.0217911
-0.0291169
-0.038767
-0.0451649
-0.0484594
-0.0508625
-0.048035
-0.0335691
-0.0103731
0.0130395
0.0315702
0.0471697
0.0621776
0.0764482
0.0875655
0.0906316
0.0792409
0.0504047
0.0118055
-0.0209435
-0.0342672
-0.0270944
-0.00874948
0.00974656
0.0239439
0.0348185
0.0438459
0.0495297
0.0495298
0.0438461
0.0348185
0.0239434
0.00974564
-0.00875076
-0.0270958
-0.0342684
-0.020944
0.0118064
0.0504074
0.0792451
0.0906364
0.0875697
0.0764512
0.0621794
0.0471706
0.0315706
0.0130391
-0.0103754
-0.0335739
-0.0480415
-0.0508686
-0.0484633
-0.0451662
-0.0387662
-0.0291152
-0.0217899
-0.019149
-0.0153542
-0.00801916
-0.00247397
-0.0021704
-0.004485
-0.00664854
-0.00826482
-0.00848679
-0.00640126
-0.00325715
-0.00152056
-0.00154898
-0.00204562
-0.00239073
-0.00286484
-0.00315709
-0.0019467
-0.000246293
0.000537217
0.00135087
0.000965754
-3.6396e-05
-0.00092139
-0.00175181
-0.00153929
-0.00164542
-0.00191845
-0.0017059
-0.00140342
-0.00154055
-0.00214394
-0.00303585
-0.00513964
-0.00798423
-0.00888643
-0.00703942
-0.00481972
-0.00453413
-0.00564259
-0.00802087
-0.0133525
-0.0197855
-0.0226164
-0.0242037
-0.031923
-0.0437615
-0.0505154
-0.0490444
-0.044092
-0.0361573
-0.0199532
0.00386721
0.0280297
0.0463504
0.0599259
0.0710719
0.0799497
0.0849406
0.0829324
0.0689949
0.0393233
-0.000633567
-0.0359832
-0.0508115
-0.0408921
-0.0150764
0.0124363
0.0327902
0.0447817
0.0512676
0.0542781
0.0542782
0.0512678
0.0447818
0.0327899
0.0124355
-0.0150777
-0.0408938
-0.0508132
-0.0359844
-0.000633491
0.0393251
0.0689983
0.0829367
0.0849449
0.0799532
0.0710744
0.0599274
0.0463512
0.0280298
0.00386582
-0.0199566
-0.0361625
-0.0440981
-0.0490501
-0.0505193
-0.0437623
-0.0319209
-0.024201
-0.0226154
-0.019786
-0.0133523
-0.00801917
-0.00564013
-0.00453204
-0.00481884
-0.00704025
-0.00888839
-0.00798579
-0.00513989
-0.0030352
-0.00214307
-0.00153986
-0.00140297
-0.00170573
-0.00191867
-0.00164562
-0.00153942
-0.00175219
-0.000921434
-3.61902e-05
-0.000691498
-0.0019389
-0.00243304
-0.00196822
-0.00125343
-0.00118379
-0.00156373
-0.00154083
-0.00231309
-0.00418247
-0.00544026
-0.00651187
-0.00726447
-0.00604808
-0.0034924
-0.00257914
-0.00575234
-0.0110881
-0.0153541
-0.0197855
-0.025737
-0.029749
-0.0321992
-0.0393019
-0.0495012
-0.052479
-0.0433119
-0.0294147
-0.0160981
0.000761705
0.0236071
0.0473333
0.0645617
0.0749269
0.0804606
0.0822267
0.0795865
0.071445
0.0545759
0.0248136
-0.014921
-0.0515635
-0.0678474
-0.0564954
-0.0249273
0.010317
0.0362942
0.0492252
0.0530492
0.0532532
0.0532533
0.0530495
0.0492253
0.036294
0.0103162
-0.0249287
-0.0564974
-0.0678496
-0.0515654
-0.0149218
0.0248144
0.0545782
0.0714484
0.0795905
0.0822307
0.0804641
0.0749297
0.0645637
0.0473345
0.023607
0.000760315
-0.016101
-0.0294192
-0.043318
-0.0524852
-0.0495049
-0.0393019
-0.032197
-0.0297475
-0.0257369
-0.019786
-0.0153542
-0.0110871
-0.00574998
-0.00257646
-0.003491
-0.00604856
-0.00726583
-0.00651291
-0.00544075
-0.00418243
-0.00231261
-0.00154032
-0.00156333
-0.00118348
-0.00125324
-0.00196834
-0.00243367
-0.00193943
-0.000691585
-0.000358738
-0.000441469
-0.000666381
-0.00143483
-0.00121318
-0.00144786
-0.00251661
-0.00251354
-0.00370772
-0.00651569
-0.0076523
-0.00728523
-0.00600344
-0.00380323
-0.00213007
-0.00293221
-0.00800625
-0.0149007
-0.0191489
-0.0226164
-0.029749
-0.0376689
-0.0428795
-0.0484701
-0.0544449
-0.0522448
-0.0361584
-0.0149208
0.00274246
0.0196451
0.041152
0.0645586
0.081257
0.0889739
0.0893424
0.0847189
0.07553
0.0624648
0.0438786
0.0156629
-0.0217934
-0.0579049
-0.075105
-0.0632596
-0.0276727
0.0138533
0.0447764
0.0586076
0.0599354
0.057449
0.0574492
0.0599357
0.0586079
0.0447764
0.0138527
-0.0276739
-0.0632614
-0.0751071
-0.0579068
-0.0217944
0.0156631
0.0438802
0.0624676
0.0755337
0.0847233
0.089347
0.0889782
0.0812603
0.0645607
0.0411527
0.0196449
0.00274124
-0.0149238
-0.0361641
-0.0522524
-0.0544515
-0.0484735
-0.0428798
-0.0376677
-0.0297475
-0.0226155
-0.019149
-0.0149007
-0.00800464
-0.00292927
-0.00212741
-0.00380209
-0.00600387
-0.00728642
-0.0076536
-0.00651643
-0.00370752
-0.00251317
-0.00251646
-0.0014476
-0.00121298
-0.00143479
-0.000666386
-0.000441501
-0.000358748
-0.000444343
0.000146707
0.000145638
-0.00160212
-0.00131725
-0.00137964
-0.00307142
-0.00331899
-0.00472431
-0.00748458
-0.00773932
-0.00635205
-0.00494261
-0.0045804
-0.00592449
-0.00854406
-0.0133309
-0.0189379
-0.0217911
-0.0242037
-0.0321992
-0.0428795
-0.0488929
-0.0503297
-0.05023
-0.0437948
-0.0246194
-0.00039967
0.0187481
0.0338239
0.0523484
0.0739337
0.089231
0.0941188
0.0896936
0.0798766
0.0659308
0.0499188
0.0313263
0.00646827
-0.0265366
-0.059941
-0.0768307
-0.0647111
-0.0262985
0.0203522
0.0558152
0.0708819
0.0703354
0.0655911
0.0655913
0.0703358
0.0708822
0.0558153
0.0203519
-0.0262994
-0.0647126
-0.0768325
-0.0599427
-0.0265377
0.00646806
0.0313271
0.0499205
0.0659336
0.0798805
0.0896983
0.0941237
0.089235
0.0739362
0.0523493
0.033824
0.0187477
-0.000401349
-0.0246237
-0.0438017
-0.0502373
-0.0503355
-0.0488962
-0.0428798
-0.032197
-0.024201
-0.0217899
-0.018938
-0.0133306
-0.00854267
-0.00592246
-0.00457854
-0.00494171
-0.00635232
-0.00774048
-0.00748569
-0.00472438
-0.00331871
-0.00307131
-0.00137931
-0.00131718
-0.00160226
0.000145946
0.000146917
-0.00044441
-0.00118254
-0.000862806
-0.000562999
-0.00240673
-0.00153509
-0.00158568
-0.00424666
-0.00484151
-0.00546432
-0.00640153
-0.00494971
-0.0032559
-0.00342722
-0.00660842
-0.011741
-0.0161231
-0.0204898
-0.0256338
-0.0291169
-0.031923
-0.0393019
-0.0484701
-0.0503297
-0.0433338
-0.0344756
-0.0235499
-0.00345121
0.0210881
0.0400052
0.0516606
0.0647149
0.0810166
0.091814
0.0915376
0.0809103
0.0653855
0.0468585
0.0283667
0.00993826
-0.0112243
-0.0389799
-0.0683232
-0.0840271
-0.0718028
-0.0317453
0.0188365
0.0583678
0.0751144
0.0735389
0.0671675
0.0671676
0.0735393
0.0751148
0.0583679
0.0188362
-0.0317462
-0.0718042
-0.0840289
-0.0683251
-0.0389814
-0.0112254
0.00993771
0.0283668
0.0468596
0.065388
0.0809141
0.0915423
0.0918183
0.0810198
0.0647166
0.0516616
0.0400061
0.0210882
-0.00345305
-0.023554
-0.0344812
-0.04334
-0.0503355
-0.0484735
-0.0393019
-0.0319209
-0.0291152
-0.0256333
-0.0204899
-0.0161232
-0.0117404
-0.00660669
-0.00342514
-0.0032545
-0.00494959
-0.00640231
-0.0054648
-0.00484176
-0.0042468
-0.00158512
-0.00153485
-0.00240704
-0.000562808
-0.000862884
-0.00118288
-0.00124727
-0.000541411
-1.60336e-05
-0.00246817
-0.00234406
-0.00334194
-0.00666171
-0.00684058
-0.00576574
-0.00461576
-0.00265796
-0.00202568
-0.00388937
-0.00902284
-0.0154217
-0.0200987
-0.0246632
-0.031661
-0.038767
-0.0437615
-0.0495012
-0.0544449
-0.05023
-0.0344756
-0.0172694
-0.00229993
0.0180194
0.0428383
0.0627374
0.0725693
0.0808401
0.0914379
0.0975145
0.0923654
0.0763564
0.055912
0.0335239
0.0127246
-0.006166
-0.0247034
-0.0480772
-0.0736598
-0.0886536
-0.0775805
-0.0380918
0.0142019
0.0563728
0.0745773
0.0724568
0.0649729
0.064973
0.0724571
0.0745776
0.0563729
0.0142017
-0.0380926
-0.0775819
-0.0886554
-0.0736616
-0.0480787
-0.0247047
-0.00616716
0.0127238
0.033524
0.0559136
0.0763597
0.0923701
0.0975195
0.0914423
0.0808434
0.0725719
0.0627397
0.0428397
0.0180193
-0.00230172
-0.0172727
-0.0344812
-0.0502373
-0.0544515
-0.0495049
-0.0437623
-0.0387662
-0.0316598
-0.0246622
-0.0200984
-0.0154215
-0.00902164
-0.00388723
-0.0020235
-0.00265662
-0.00461565
-0.00576621
-0.00684145
-0.00666255
-0.00334167
-0.00234376
-0.0024683
-1.55352e-05
-0.000541345
-0.00124767
-0.000742215
0.000666338
0.00113121
-0.00216495
-0.0033033
-0.00483136
-0.00747945
-0.00695845
-0.00526639
-0.00421487
-0.00431511
-0.00590921
-0.0086237
-0.0133739
-0.0185696
-0.0224107
-0.0270728
-0.0355802
-0.0451649
-0.0505154
-0.052479
-0.0522448
-0.0437948
-0.0235499
-0.00229993
0.01388
0.0324268
0.0564345
0.0774027
0.0864514
0.0908962
0.0964368
0.0991617
0.091414
0.0729498
0.0502846
0.0264414
0.00500214
-0.0135391
-0.0293466
-0.0481986
-0.0694385
-0.0831613
-0.0734372
-0.035766
0.0166666
0.0604621
0.0801748
0.0782344
0.0703044
0.0703045
0.0782346
0.080175
0.0604623
0.0166664
-0.0357666
-0.0734383
-0.0831626
-0.0694398
-0.0481997
-0.0293477
-0.0135403
0.00500112
0.026441
0.0502855
0.0729524
0.0914183
0.0991668
0.0964419
0.0909007
0.0864553
0.0774057
0.0564361
0.032427
0.0138792
-0.00230177
-0.0235541
-0.0438017
-0.0522524
-0.0524853
-0.0505194
-0.0451662
-0.0355792
-0.0270707
-0.022409
-0.0185689
-0.0133731
-0.00862238
-0.00590765
-0.00431361
-0.00421401
-0.0052663
-0.00695919