/*--------------------------------*- C++ -*----------------------------------*\
  =========                 |
  \\      /  F ield         | OpenFOAM: The Open Source CFD Toolbox
   \\    /   O peration     | Website:  https://openfoam.org
    \\  /    A nd           | Version:  10
     \\/     M anipulation  |
\*---------------------------------------------------------------------------*/
FoamFile
{
    format      ascii;
    class       volScalarField;
    location    "100";
    object      h_0;
}
// * * * * * * * * * * * * * * * * * * * * * * * * * * * * * * * * * * * * * //

dimensions      [0 1 0 0 0 0 0];

internalField   nonuniform List<scalar> 
10000
(
-0.000976859
-0.00283542
-0.00441421
-0.00555447
-0.00614737
-0.0061413
-0.0055303
-0.00434691
-0.00266585
-0.000600391
0.00171266
0.0041199
0.00644768
0.0085247
0.0102299
0.0115083
0.0123466
0.0127748
0.0128987
0.0128882
0.0128901
0.0129478
0.0130177
0.0130497
0.0130395
0.0130234
0.013031
0.0130172
0.0128352
0.0123005
0.0113261
0.0100391
0.00877992
0.00795252
0.00781393
0.00834617
0.00929439
0.0103384
0.0112806
0.0121205
0.0129652
0.0138522
0.0146322
0.0150269
0.01483
0.014083
0.0130729
0.012153
0.0115411
0.0112629
0.0112629
0.0115411
0.0121529
0.0130729
0.014083
0.0148301
0.015027
0.0146322
0.0138522
0.0129652
0.0121204
0.0112805
0.0103383
0.00929429
0.0083461
0.00781391
0.00795256
0.00878004
0.0100393
0.0113264
0.0123008
0.0128354
0.0130172
0.0130308
0.0130231
0.0130389
0.013049
0.013017
0.0129471
0.0128896
0.0128881
0.012899
0.0127755
0.0123478
0.0115097
0.0102314
0.00852624
0.00644901
0.00412083
0.00171303
-0.000600692
-0.00266686
-0.00434856
-0.00553247
-0.00614378
-0.00614991
-0.0055568
-0.00441608
-0.00283663
-0.000977279
-0.00283542
-0.00823133
-0.0128204
-0.0161476
-0.0179024
-0.0179373
-0.0162337
-0.012881
-0.00808815
-0.00217123
0.00448798
0.0114574
0.0182387
0.0243311
0.0293734
0.0331948
0.0357481
0.0371145
0.0375975
0.0376828
0.0377841
0.0380144
0.0382396
0.0383138
0.0382295
0.0381024
0.0380329
0.0379098
0.0373247
0.0357521
0.0329338
0.0292195
0.0255758
0.0231674
0.022752
0.0242993
0.0270868
0.0301872
0.0330142
0.0355457
0.038076
0.0407052
0.0429982
0.0441496
0.0435673
0.0413853
0.0384519
0.0357992
0.0340523
0.0332668
0.0332667
0.0340521
0.035799
0.0384518
0.0413854
0.0435675
0.0441498
0.0429983
0.0407051
0.0380758
0.0355454
0.0330138
0.0301868
0.0270865
0.0242991
0.0227519
0.0231676
0.0255762
0.02922
0.0329344
0.0357528
0.0373253
0.0379099
0.0380325
0.0381013
0.0382279
0.0383118
0.0382375
0.0380125
0.0377829
0.0376826
0.0375984
0.0371166
0.0357513
0.0331988
0.0293778
0.0243355
0.0182424
0.01146
0.00448898
-0.00217215
-0.00809107
-0.0128858
-0.0162399
-0.0179445
-0.0179097
-0.0161543
-0.0128258
-0.00823482
-0.00283663
-0.00441421
-0.0128204
-0.0199914
-0.0252382
-0.0280934
-0.0283332
-0.0259212
-0.0209786
-0.0138016
-0.0048414
0.00535702
0.0161622
0.0268147
0.0365225
0.0446915
0.0510203
0.0554069
0.0579593
0.0591348
0.059665
0.0601539
0.0607349
0.0611749
0.061247
0.0609574
0.0605164
0.0601243
0.0596619
0.0585435
0.0559776
0.0515502
0.0457573
0.0400544
0.0362468
0.0355589
0.0380093
0.0425125
0.0476137
0.0523465
0.0566104
0.0608164
0.0651027
0.0687892
0.0706212
0.0696862
0.0662256
0.0616078
0.0574733
0.0547889
0.0536021
0.0536021
0.0547887
0.0574731
0.0616077
0.0662257
0.0696865
0.0706214
0.0687892
0.0651025
0.060816
0.0566099
0.0523459
0.0476131
0.042512
0.0380091
0.035559
0.0362471
0.040055
0.0457581
0.0515511
0.0559785
0.058544
0.0596619
0.0601236
0.0605148
0.0609551
0.0612442
0.0611719
0.0607324
0.0601523
0.0596648
0.0591363
0.0579626
0.0554119
0.0510265
0.0446983
0.0365291
0.0268203
0.016166
0.00535837
-0.00484295
-0.0138062
-0.020986
-0.0259308
-0.0283442
-0.0281046
-0.0252485
-0.0199997
-0.0128258
-0.00441608
-0.00555447
-0.0161476
-0.0252382
-0.0320004
-0.0358775
-0.0365951
-0.0340863
-0.0284601
-0.020026
-0.00926588
0.00323307
0.0167564
0.030378
0.0430735
0.0540323
0.0628062
0.0692091
0.0733339
0.0757198
0.0772344
0.0785569
0.0797705
0.0805352
0.0805715
0.0799275
0.0789267
0.0778979
0.0767795
0.0749147
0.0713507
0.06555
0.0580729
0.0506997
0.0457274
0.0448023
0.0480626
0.0541817
0.0612626
0.0679543
0.0740008
0.0798506
0.085669
0.090603
0.0930552
0.0918615
0.08736
0.0813618
0.0760217
0.0725886
0.0710901
0.07109
0.0725885
0.0760215
0.0813618
0.0873601
0.0918617
0.0930553
0.090603
0.0856687
0.07985
0.0740001
0.0679535
0.0612619
0.0541812
0.0480625
0.0448026
0.045728
0.0507006
0.0580739
0.0655509
0.0713514
0.0749148
0.076779
0.0778966
0.0789247
0.0799249
0.0805685
0.0805321
0.079768
0.0785555
0.0772347
0.075722
0.0733383
0.0692154
0.0628139
0.0540406
0.0430815
0.0303846
0.0167608
0.0032344
-0.0092681
-0.0200319
-0.0284695
-0.0340984
-0.0366088
-0.0358915
-0.0320132
-0.0252485
-0.0161543
-0.0055568
-0.00614737
-0.0179024
-0.0280934
-0.0358775
-0.0406895
-0.0422322
-0.0403896
-0.0352018
-0.0268991
-0.0158693
-0.00260084
0.0122446
0.0276869
0.0425453
0.0558226
0.0669134
0.0755131
0.0816436
0.0858298
0.0889411
0.0916004
0.0937669
0.094993
0.0949868
0.0938757
0.092113
0.0901713
0.0880986
0.0852686
0.0806777
0.0737126
0.0649356
0.0563019
0.0504537
0.049403
0.0534605
0.0611605
0.0702299
0.0789193
0.0867474
0.0941477
0.101337
0.107389
0.110477
0.109233
0.104036
0.0970191
0.0907458
0.0867104
0.0849514
0.0849514
0.0867103
0.0907457
0.0970191
0.104036
0.109233
0.110477
0.107388
0.101336
0.094147
0.0867465
0.0789184
0.0702292
0.0611601
0.0534605
0.0494035
0.0504546
0.056303
0.0649365
0.0737132
0.0806778
0.0852681
0.0880974
0.0901694
0.0921107
0.093873
0.094984
0.0949904
0.0937651
0.0915998
0.0889422
0.0858329
0.0816488
0.0755202
0.0669217
0.0558314
0.0425536
0.0276936
0.0122488
-0.00259995
-0.0158722
-0.0269059
-0.0352122
-0.0404028
-0.0422471
-0.0407047
-0.0358915
-0.0281046
-0.0179097
-0.00614991
-0.0061413
-0.0179373
-0.0283332
-0.0365951
-0.0422322
-0.0449537
-0.0445758
-0.0410111
-0.0343143
-0.0246519
-0.0122715
0.00235546
0.0183143
0.0343566
0.0493424
0.0625083
0.0733965
0.0818914
0.0883973
0.0936506
0.0980985
0.101516
0.103353
0.103347
0.101737
0.0991137
0.096093
0.0928662
0.0889227
0.0833103
0.0753949
0.065702
0.0562406
0.0498623
0.0488744
0.0537823
0.0630551
0.0740971
0.0847558
0.0942843
0.103082
0.111465
0.118544
0.122369
0.121391
0.11595
0.108358
0.101467
0.0969883
0.0950202
0.0950202
0.0969883
0.101467
0.108358
0.11595
0.121391
0.122368
0.118543
0.111464
0.103081
0.0942833
0.084755
0.0740965
0.0630548
0.0537826
0.0488751
0.0498633
0.0562416
0.0657027
0.0753951
0.0833098
0.0889214
0.0928644
0.0960908
0.0991113
0.101735
0.103345
0.103352
0.101515
0.0980992
0.0936529
0.0884013
0.0818971
0.0734037
0.0625163
0.0493506
0.034364
0.0183201
0.00235865
-0.0122715
-0.0246555
-0.0343215
-0.0410217
-0.0445889
-0.0449684
-0.0422471
-0.0366088
-0.0283442
-0.0179445
-0.00614378
-0.0055303
-0.0162337
-0.0259212
-0.0340863
-0.0403896
-0.0445758
-0.0463785
-0.0455305
-0.0418214
-0.0350809
-0.0251898
-0.0123061
0.00283471
0.0190085
0.0349874
0.0498575
0.062977
0.0740278
0.083197
0.0909795
0.0975614
0.102497
0.105138
0.105266
0.103241
0.0997807
0.0956337
0.0911559
0.0860232
0.0794245
0.0707588
0.060495
0.0506039
0.0440272
0.043287
0.0490826
0.0598765
0.0728121
0.0853549
0.0964775
0.106536
0.115977
0.124031
0.128716
0.128334
0.123119
0.115434
0.108303
0.103604
0.10152
0.10152
0.103604
0.108303
0.115435
0.123119
0.128334
0.128715
0.12403
0.115976
0.106534
0.0964765
0.0853542
0.0728117
0.0598765
0.049083
0.0432877
0.044028
0.0506045
0.0604952
0.0707583
0.0794233
0.0860214
0.0911537
0.0956314
0.0997787
0.103239
0.105265
0.105138
0.102498
0.0975638
0.0909831
0.0832018
0.0740336
0.0629836
0.0498643
0.034994
0.0190141
0.00283856
-0.0123046
-0.025191
-0.0350851
-0.0418286
-0.0455404
-0.0463905
-0.0445889
-0.0404028
-0.0340983
-0.0259308
-0.0162399
-0.00553247
-0.00434691
-0.012881
-0.0209786
-0.0284601
-0.0352018
-0.0410111
-0.0455305
-0.0482682
-0.0486735
-0.0461452
-0.0401012
-0.0302935
-0.0171867
-0.00189673
0.0143152
0.0303992
0.0455093
0.059078
0.071012
0.081504
0.0904414
0.0971434
0.100852
0.101367
0.0991354
0.0949761
0.0897557
0.0840159
0.0776758
0.0701335
0.0608643
0.0502729
0.0402282
0.0336689
0.0332583
0.0398803
0.0520483
0.0667244
0.081041
0.0936906
0.104956
0.115402
0.124407
0.130026
0.130471
0.125861
0.118526
0.111555
0.10692
0.10486
0.10486
0.10692
0.111555
0.118526
0.125861
0.130471
0.130025
0.124406
0.1154
0.104955
0.0936896
0.0810404
0.0667242
0.0520484
0.0398807
0.0332588
0.0336694
0.0402283
0.0502724
0.0608631
0.0701317
0.0776736
0.0840136
0.0897538
0.0949748
0.099135
0.101367
0.100854
0.0971464
0.0904455
0.0815088
0.0710174
0.0590836
0.0455148
0.0304042
0.0143194
-0.00189379
-0.0171853
-0.030294
-0.0401038
-0.04615
-0.0486803
-0.0482768
-0.0455404
-0.0410217
-0.0352122
-0.0284695
-0.020986
-0.0128858
-0.00434857
-0.00266585
-0.00808815
-0.0138016
-0.020026
-0.0268991
-0.0343143
-0.0418214
-0.0486735
-0.0539245
-0.0564797
-0.0552386
-0.0494967
-0.0393898
-0.0258632
-0.0101648
0.0065378
0.0231921
0.0389692
0.0534822
0.0666181
0.0779755
0.0866407
0.091712
0.0929377
0.0907872
0.086144
0.0799949
0.073091
0.065628
0.0572417
0.0474975
0.0367269
0.0266621
0.0201815
0.0200382
0.0272928
0.040563
0.0567188
0.0726326
0.0867317
0.0991854
0.110619
0.120549
0.127113
0.128506
0.124765
0.118151
0.111729
0.107468
0.1056
0.1056
0.107468
0.111728
0.118151
0.124764
0.128505
0.127112
0.120548
0.110618
0.0991842
0.0867309
0.0726321
0.0567187
0.0405631
0.0272931
0.0200384
0.0201815
0.0266616
0.0367258
0.0474957
0.0572396
0.0656258
0.0730892
0.0799938
0.0861438
0.0907882
0.0929399
0.0917154
0.0866453
0.0779809
0.0666238
0.0534878
0.0389742
0.0231962
0.00654059
-0.0101634
-0.0258633
-0.0393912
-0.0494995
-0.0552426
-0.0564849
-0.0539306
-0.0486803
-0.0418286
-0.0343215
-0.0269059
-0.0200319
-0.0138062
-0.00809107
-0.00266686
-0.000600391
-0.00217123
-0.0048414
-0.00926588
-0.0158693
-0.0246519
-0.0350809
-0.0461452
-0.0564797
-0.0644742
-0.0684996
-0.0673889
-0.0609272
-0.0498504
-0.0353566
-0.0187082
-0.00114512
0.0162697
0.0328937
0.0483538
0.0620012
0.0726998
0.0793567
0.0815794
0.0797819
0.0748936
0.0680445
0.0602176
0.0518801
0.0428753
0.0328266
0.0219758
0.0119104
0.00543419
0.0053655
0.0129307
0.0268843
0.0440852
0.0612353
0.0765437
0.0900492
0.102387
0.113176
0.120662
0.123079
0.12042
0.114853
0.109336
0.105744
0.104233
0.104233
0.105744
0.109335
0.114852
0.120419
0.123078
0.120661
0.113175
0.102386
0.0900483
0.0765431
0.0612348
0.0440849
0.0268842
0.0129306
0.0053653
0.00543375
0.0119095
0.0219744
0.0328247
0.0428733
0.0518784
0.0602167
0.0680445
0.0748948
0.0797843
0.081583
0.0793614
0.0727054
0.0620072
0.0483598
0.0328989
0.0162736
-0.00114287
-0.0187079
-0.0353581
-0.0498534
-0.0609314
-0.0673939
-0.068505
-0.0644797
-0.0564849
-0.04615
-0.0350851
-0.0246554
-0.0158722
-0.00926809
-0.00484295
-0.00217215
-0.000600698
0.00171266
0.00448798
0.00535702
0.00323307
-0.00260084
-0.0122715
-0.0251898
-0.0401012
-0.0552386
-0.0684996
-0.0777607
-0.081423
-0.0789268
-0.0707774
-0.058092
-0.0421961
-0.0244761
-0.00616968
0.0118976
0.0291637
0.0447852
0.0574167
0.065729
0.0691083
0.0678553
0.0629478
0.0556957
0.0473208
0.0385065
0.0292131
0.0190519
0.00815873
-0.00199768
-0.00866126
-0.00895294
-0.00150737
0.0125625
0.0301582
0.047912
0.0639075
0.0780897
0.0910866
0.102594
0.11096
0.114475
0.113095
0.108859
0.10455
0.101871
0.100848
0.100848
0.101871
0.10455
0.108858
0.113094
0.114474
0.110959
0.102593
0.0910859
0.0780892
0.0639071
0.0479115
0.0301576
0.0125617
-0.00150815
-0.00895368
-0.00866206
-0.00199872
0.00815733
0.0190503
0.0292116
0.0385056
0.0473209
0.055697
0.0629505
0.0678591
0.0691131
0.0657345
0.0574226
0.0447911
0.0291691
0.0119017
-0.00616728
-0.0244758
-0.0421981
-0.0580961
-0.070783
-0.0789333
-0.0814298
-0.0777671
-0.068505
-0.0552426
-0.0401038
-0.025191
-0.0122715
-0.00259994
0.00323441
0.00535838
0.00448898
0.00171302
0.0041199
0.0114574
0.0161622
0.0167564
0.0122446
0.00235546
-0.0123061
-0.0302935
-0.0494967
-0.0673889
-0.081423
-0.0896248
-0.0911147
-0.0861583
-0.0757612
-0.0612694
-0.0441571
-0.0257577
-0.00699475
0.011453
0.028595
0.0428913
0.0527529
0.0573005
0.0566965
0.0519841
0.0446773
0.0362097
0.027381
0.0181423
0.00801317
-0.002972
-0.0134023
-0.020517
-0.0213807
-0.0145451
-0.00103712
0.0161141
0.0335807
0.0494576
0.0636877
0.0769131
0.0888835
0.0980262
0.10267
0.102714
0.10003
0.0971624
0.09558
0.0951441
0.095144
0.0955797
0.0971619
0.100029
0.102713
0.102669
0.098025
0.0888827
0.0769126
0.0636875
0.0494573
0.0335801
0.016113
-0.00103852
-0.0145465
-0.021382
-0.020518
-0.0134033
-0.00297296
0.00801225
0.0181417
0.0273812
0.036211
0.04468
0.0519881
0.0567014
0.057306
0.0527587
0.0428969
0.0286001
0.011457
-0.00699224
-0.0257571
-0.0441588
-0.0612734
-0.0757673
-0.0861658
-0.0911228
-0.0896327
-0.0814298
-0.0673939
-0.0494995
-0.030294
-0.0123045
0.00235867
0.0122488
0.0167608
0.016166
0.01146
0.00412082
0.00644768
0.0182387
0.0268147
0.030378
0.0276869
0.0183143
0.00283471
-0.0171867
-0.0393898
-0.0609272
-0.0789268
-0.0911147
-0.0963323
-0.0946088
-0.0868108
-0.0742541
-0.0584306
-0.040686
-0.0219633
-0.0029996
0.0151051
0.0306396
0.0417691
0.0473551
0.0474325
0.0431234
0.0361361
0.0280499
0.01966
0.0107856
0.000797582
-0.0103412
-0.021204
-0.0289818
-0.0307162
-0.0249653
-0.0127431
0.00300923
0.0191268
0.0338821
0.0473401
0.0601959
0.0722324
0.0819203
0.0876081
0.0891225
0.0881371
0.0869027
0.0865883
0.0868381
0.0868381
0.0865882
0.0869024
0.0881364
0.0891215
0.0876069
0.0819192
0.0722317
0.0601956
0.04734
0.0338819
0.0191261
0.0030079
-0.0127449
-0.0249672
-0.0307178
-0.0289829
-0.0212047
-0.0103415
0.000797689
0.0107863
0.0196615
0.0280525
0.0361398
0.0431282
0.047438
0.0473609
0.0417746
0.0306444
0.0151088
-0.00299738
-0.0219628
-0.0406875
-0.0584342
-0.0742598
-0.0868182
-0.0946174
-0.0963411
-0.0911228
-0.0789333
-0.0609314
-0.0393912
-0.0171853
0.00283858
0.0183201
0.0276936
0.0303846
0.0268203
0.0182424
0.006449
0.0085247
0.0243311
0.0365225
0.0430735
0.0425453
0.0343566
0.0190085
-0.00189673
-0.0258632
-0.0498504
-0.0707774
-0.0861583
-0.0946088
-0.0959395
-0.0908588
-0.0806014
-0.0666053
-0.0501551
-0.032153
-0.0133549
0.00506133
0.0212555
0.0332028
0.039562
0.0402765
0.0365468
0.0302288
0.0229584
0.0154192
0.00721631
-0.00245104
-0.0136579
-0.0249186
-0.0333814
-0.0361414
-0.0318722
-0.0216396
-0.00826044
0.00539992
0.0179631
0.0297392
0.0415146
0.0530845
0.0629404
0.0694517
0.0723829
0.073193
0.0737817
0.0749329
0.0759919
0.075992
0.074933
0.0737815
0.0731926
0.0723821
0.0694507
0.0629394
0.0530838
0.0415142
0.029739
0.0179627
0.00539909
-0.00826184
-0.0216414
-0.0318741
-0.0361429
-0.0333823
-0.0249188
-0.0136574
-0.00244977
0.00721834
0.0154221
0.0229622
0.0302334
0.036552
0.040282
0.0395672
0.0332073
0.0212588
0.00506318
-0.0133547
-0.0321546
-0.0501587
-0.0666106
-0.0806083
-0.0908669
-0.0959482
-0.0946174
-0.0861658
-0.070783
-0.0498534
-0.0258633
-0.00189378
0.0190141
0.034364
0.0425536
0.0430815
0.0365291
0.0243355
0.00852624
0.0102299
0.0293734
0.0446915
0.0540323
0.0558226
0.0493424
0.0349874
0.0143152
-0.0101648
-0.0353566
-0.058092
-0.0757612
-0.0868108
-0.0908588
-0.0884456
-0.08068
-0.068886
-0.0542338
-0.0375511
-0.0195921
-0.00158094
0.0145756
0.0267532
0.0334967
0.0347052
0.0316411
0.0262408
0.0201143
0.0137728
0.00658241
-0.00242707
-0.0133658
-0.0247145
-0.033651
-0.0374305
-0.0349345
-0.0273046
-0.0171664
-0.00695344
0.00244451
0.0116757
0.0216454
0.032154
0.0417173
0.0487541
0.0529921
0.0556615
0.0582478
0.0610586
0.0630509
0.0630509
0.0610587
0.0582479
0.0556613
0.0529916
0.0487534
0.0417166
0.0321534
0.0216449
0.0116752
0.00244385
-0.00695444
-0.0171677
-0.0273062
-0.034936
-0.0374316
-0.0336514
-0.0247141
-0.0133644
-0.00242469
0.00658573
0.0137769
0.020119
0.0262458
0.0316462
0.03471
0.0335008
0.0267563
0.0145772
-0.00158108
-0.019594
-0.0375548
-0.054239
-0.0688926
-0.0806876
-0.0884537
-0.0908669
-0.0868182
-0.0757673
-0.0580961
-0.0353581
-0.0101634
0.0143194
0.034994
0.0493506
0.0558314
0.0540406
0.0446983
0.0293778
0.0102314
0.0115083
0.0331948
0.0510203
0.0628062
0.0669134
0.0625083
0.0498575
0.0303992
0.0065378
-0.0187082
-0.0421961
-0.0612694
-0.0742541
-0.0806014
-0.08068
-0.0754405
-0.0660514
-0.0535426
-0.0386622
-0.0221584
-0.00527107
0.010101
0.0218402
0.028476
0.0299103
0.0274456
0.0230371
0.0182204
0.013331
0.00752274
-0.000337044
-0.0104415
-0.0213383
-0.0303571
-0.0350145
-0.0344429
-0.0298294
-0.0235255
-0.0174386
-0.0118959
-0.00586827
0.00168961
0.0106044
0.0194504
0.026735
0.0321625
0.0367048
0.0413736
0.045938
0.0489223
0.0489224
0.0459382
0.0413737
0.0367048
0.0321622
0.0267346
0.0194499
0.0106039
0.00168912
-0.0058689
-0.0118967
-0.0174397
-0.0235267
-0.0298305
-0.0344436
-0.0350147
-0.0303567
-0.0213371
-0.0104393
-0.000333766
0.00752701
0.013336
0.0182257
0.0230422
0.0274502
0.029914
0.0284786
0.0218414
0.0101006
-0.00527315
-0.0221622
-0.0386675
-0.0535492
-0.0660589
-0.0754483
-0.0806876
-0.0806083
-0.0742599
-0.0612735
-0.0421981
-0.0187079
0.00654059
0.0304042
0.0498643
0.0625163
0.0669217
0.0628139
0.0510265
0.0331988
0.0115097
0.0123466
0.0357481
0.0554069
0.0692091
0.0755131
0.0733965
0.062977
0.0455093
0.0231921
-0.00114512
-0.0244761
-0.0441571
-0.0584306
-0.0666053
-0.068886
-0.0660514
-0.0590968
-0.0489099
-0.0361738
-0.0216399
-0.00653724
0.00731529
0.0179084
0.0238492
0.0250875
0.022957
0.0194009
0.0158759
0.0125832
0.00851675
0.002379
-0.00619761
-0.0159751
-0.0245691
-0.029823
-0.0311047
-0.0295804
-0.0272606
-0.0254971
-0.0240606
-0.0215506
-0.0167615
-0.00978866
-0.00194107
0.00540621
0.0119167
0.0182554
0.0249215
0.0311475
0.0350606
0.0350607
0.0311477
0.0249215
0.0182552
0.0119163
0.0054058
-0.0019414
-0.00978889
-0.0167617
-0.0215511
-0.0240614
-0.0254979
-0.0272613
-0.0295808
-0.0311046
-0.0298223
-0.0245677
-0.015973
-0.00619466
0.0023829
0.00852148
0.0125885
0.0158812
0.0194056
0.0229607
0.0250898
0.0238501
0.0179077
0.00731302
-0.00654104
-0.0216451
-0.0361803
-0.0489171
-0.0591045
-0.0660589
-0.0688926
-0.0666106
-0.0584342
-0.0441588
-0.0244759
-0.00114288
0.0231962
0.0455148
0.0629836
0.0734037
0.0755202
0.0692154
0.0554119
0.0357513
0.0123477
0.0127748
0.0371145
0.0579593
0.0733339
0.0816436
0.0818914
0.0740278
0.059078
0.0389692
0.0162697
-0.00616968
-0.0257577
-0.040686
-0.0501551
-0.0542338
-0.0535426
-0.0489099
-0.0410941
-0.0307342
-0.0185949
-0.00587438
0.00574629
0.0144503
0.0190035
0.0194544
0.0171844
0.0141325
0.0117053
0.0100273
0.00798398
0.00409965
-0.00226879
-0.0102431
-0.0178347
-0.0232359
-0.0259972
-0.0271947
-0.0284734
-0.0306699
-0.0330741
-0.0339652
-0.0319635
-0.0270191
-0.02026
-0.0129311
-0.00545094
0.00248863
0.0108725
0.0184683
0.0231206
0.0231206
0.0184682
0.0108721
0.00248806
-0.00545162
-0.0129316
-0.0202603
-0.0270191
-0.0319634
-0.0339653
-0.0330743
-0.0306702
-0.0284735
-0.0271943
-0.0259961
-0.0232342
-0.0178323
-0.0102401
-0.00226518
0.00410389
0.00798872
0.0100322
0.01171
0.0141363
0.0171869
0.0194553
0.0190028
0.0144479
0.00574239
-0.00587956
-0.0186011
-0.0307412
-0.0411015
-0.0489171
-0.0535492
-0.054239
-0.0501587
-0.0406876
-0.0257571
-0.00616729
0.0162736
0.0389742
0.0590837
0.0740336
0.0818971
0.0816489
0.0733383
0.0579626
0.0371166
0.0127755
0.0128987
0.0375975
0.0591348
0.0757198
0.0858298
0.0883973
0.083197
0.071012
0.0534822
0.0328937
0.0118976
-0.00699475
-0.0219633
-0.032153
-0.0375511
-0.0386622
-0.0361738
-0.0307342
-0.0229511
-0.0136039
-0.00384035
0.00484128
0.0108825
0.0132791
0.0122336
0.00921003
0.0061704
0.00450568
0.0043091
0.00439546
0.00310531
-0.000546634
-0.00613945
-0.012146
-0.0171009
-0.0206786
-0.0238193
-0.0278223
-0.0331006
-0.0385854
-0.042322
-0.0427631
-0.0396579
-0.0338975
-0.0265916
-0.0182799
-0.00903979
0.000638236
0.00917805
0.0143003
0.0143001
0.00917752
0.000637369
-0.00904088
-0.018281
-0.0265923
-0.0338977
-0.0396576
-0.0427625
-0.0423215
-0.0385848
-0.0331
-0.0278214
-0.023818
-0.0206767
-0.0170983
-0.0121428
-0.0061358
-0.000542588
0.00310965
0.0043999
0.00431333
0.00450932
0.00617302
0.00921128
0.0122332
0.013277
0.0108788
0.00483617
-0.00384649
-0.0136107
-0.0229582
-0.0307412
-0.0361803
-0.0386675
-0.0375548
-0.0321547
-0.0219629
-0.00699226
0.0119017
0.0328989
0.0534878
0.0710174
0.0832018
0.0884013
0.085833
0.075722
0.0591363
0.0375984
0.012899
0.0128882
0.0376828
0.059665
0.0772344
0.0889411
0.0936506
0.0909795
0.081504
0.0666181
0.0483538
0.0291637
0.011453
-0.0029996
-0.0133549
-0.0195921
-0.0221584
-0.0216399
-0.0185949
-0.0136039
-0.00744823
-0.00119794
0.00387099
0.00651305
0.00601563
0.00278511
-0.00160423
-0.00515403
-0.00647681
-0.00548906
-0.00341456
-0.00206988
-0.00278313
-0.00561856
-0.00953385
-0.0133931
-0.0169545
-0.0210023
-0.0265357
-0.0336604
-0.0410965
-0.0467718
-0.0490108
-0.0473337
-0.0423504
-0.0350222
-0.0260264
-0.0158256
-0.00532104
0.00370559
0.00901391
0.00901357
0.00370463
-0.00532245
-0.0158272
-0.0260277
-0.035023
-0.0423506
-0.0473332
-0.0490099
-0.0467706
-0.0410952
-0.0336588
-0.0265337
-0.0209999
-0.0169516
-0.0133898
-0.00953025
-0.00561465
-0.00277903
-0.00206577
-0.00341069
-0.00548575
-0.00647437
-0.00515273
-0.00160429
0.00278353
0.00601249
0.00650845
0.0038652
-0.00120453
-0.00745517
-0.0136107
-0.0186011
-0.0216451
-0.0221622
-0.019594
-0.0133547
-0.0029974
0.011457
0.0291691
0.0483597
0.0666238
0.0815088
0.0909831
0.0936529
0.0889422
0.0772347
0.0596648
0.0376826
0.0128881
0.0128901
0.0377841
0.0601539
0.0785569
0.0916004
0.0980985
0.0975614
0.0904414
0.0779755
0.0620012
0.0447852
0.028595
0.0151051
0.00506133
-0.00158094
-0.00527107
-0.00653724
-0.00587438
-0.00384035
-0.00119794
0.00109465
0.00202205
0.000696296
-0.00325624
-0.00919383
-0.0154294
-0.0199455
-0.0213739
-0.0196336
-0.0159442
-0.0122113
-0.0100424
-0.00995585
-0.011392
-0.0135421
-0.0162326
-0.0200886
-0.0258573
-0.0334545
-0.0415464
-0.0480802
-0.0513191
-0.0505477
-0.0460552
-0.0386258
-0.0290685
-0.0182164
-0.0073118
0.0017874
0.00702644
0.00702597
0.00178609
-0.00731362
-0.0182183
-0.02907
-0.0386266
-0.0460552
-0.0505471
-0.051318
-0.0480786
-0.0415444
-0.033452
-0.0258543
-0.0200852
-0.016229
-0.0135384
-0.0113884
-0.00995216
-0.0100387
-0.0122078
-0.0159412
-0.0196313
-0.0213727
-0.0199455
-0.0154307
-0.0091964
-0.00326008
0.000691309
0.00201613
0.00108816
-0.00120453
-0.00384649
-0.00587957
-0.00654104
-0.00527316
-0.00158109
0.00506316
0.0151087
0.0286001
0.0447911
0.0620072
0.0779809
0.0904455
0.0975638
0.0980992
0.0915998
0.0785555
0.0601523
0.0377829
0.0128896
0.0129478
0.0380144
0.0607349
0.0797705
0.0937669
0.101516
0.102497
0.0971434
0.0866407
0.0726998
0.0574167
0.0428913
0.0306396
0.0212555
0.0145756
0.010101
0.00731529
0.00574629
0.00484128
0.00387099
0.00202205
-0.00143029
-0.00699202
-0.0146761
-0.023597
-0.0319715
-0.0377946
-0.0397397
-0.0377174
-0.03289
-0.0271632
-0.0223314
-0.0193077
-0.0180001
-0.0179329
-0.0190016
-0.0216729
-0.026481
-0.0332562
-0.0407617
-0.0471027
-0.0505557
-0.0501719
-0.0458838
-0.0382659
-0.0282462
-0.0170108
-0.00608167
0.00272405
0.00766813
0.0076676
0.0027226
-0.00608362
-0.0170127
-0.0282476
-0.0382666
-0.0458836
-0.0501711
-0.0505543
-0.0471008
-0.0407592
-0.0332529
-0.0264772
-0.0216688
-0.0189975
-0.0179291
-0.0179967
-0.0193047
-0.0223286
-0.0271607
-0.032888
-0.0377162
-0.0397395
-0.0377957
-0.0319737
-0.0236004
-0.0146803
-0.00699704
-0.0014359
0.00201613
0.0038652
0.00483616
0.00574238
0.00731301
0.0101006
0.0145772
0.0212588
0.0306443
0.0428969
0.0574226
0.0727054
0.0866453
0.0971464
0.102498
0.101515
0.0937651
0.079768
0.0607324
0.0380125
0.0129471
0.0130177
0.0382396
0.0611749
0.0805352
0.094993
0.103353
0.105138
0.100852
0.091712
0.0793567
0.065729
0.0527529
0.0417691
0.0332028
0.0267532
0.0218402
0.0179084
0.0144503
0.0108825
0.00651305
0.000696296
-0.00699202
-0.0166855
-0.02805
-0.039967
-0.0505692
-0.0578783
-0.0606133
-0.058662
-0.0530886
-0.0457333
-0.0384978
-0.0326243
-0.0284561
-0.0258445
-0.0247521
-0.0254886
-0.0284039
-0.0333231
-0.0392298
-0.044503
-0.0474994
-0.0470501
-0.0427156
-0.0348459
-0.0244802
-0.0131362
-0.00255026
0.00561149
0.0100469
0.0100464
0.00561016
-0.00255202
-0.0131379
-0.0244814
-0.0348463
-0.0427152
-0.0470491
-0.0474978
-0.0445008
-0.0392269
-0.0333196
-0.0283998
-0.0254844
-0.024748
-0.0258409
-0.0284533
-0.0326221
-0.0384961
-0.045732
-0.0530879
-0.0586619
-0.060614
-0.0578801
-0.050572
-0.0399707
-0.0280544
-0.0166903
-0.00699704
0.000691311
0.00650845
0.0108788
0.0144479
0.0179077
0.0218413
0.0267563
0.0332073
0.0417746
0.0527587
0.0657345
0.0793613
0.0917154
0.100854
0.105138
0.103352
0.0949905
0.0805321
0.061172
0.0382375
0.013017
0.0130497
0.0383138
0.061247
0.0805715
0.0949868
0.103347
0.105266
0.101367
0.0929377
0.0815794
0.0691083
0.0573005
0.0473551
0.039562
0.0334967
0.028476
0.0238492
0.0190035
0.0132791
0.00601563
-0.00325624
-0.0146761
-0.02805
-0.0427408
-0.0574133
-0.0701055
-0.078845
-0.0823841
-0.0805908
-0.0744404
-0.0656956
-0.0563174
-0.0478048
-0.0408711
-0.0356551
-0.0321745
-0.0305858
-0.0310729
-0.0334988
-0.0371348
-0.0407078
-0.0427137
-0.0418058
-0.0372051
-0.0290579
-0.0185104
-0.00736821
0.00250074
0.00968587
0.0134174
0.013417
0.00968486
0.00249946
-0.00736933
-0.018511
-0.0290578
-0.0372044
-0.0418045
-0.0427119
-0.0407055
-0.0371318
-0.0334954
-0.0310691
-0.030582
-0.032171
-0.0356522
-0.040869
-0.0478036
-0.0563168
-0.0656956
-0.0744409
-0.0805918
-0.0823856
-0.0788473
-0.0701086
-0.0574171
-0.0427451
-0.0280544
-0.0146803
-0.00326007
0.00601249
0.013277
0.0190028
0.02385
0.0284786
0.0335008
0.0395672
0.0473608
0.057306
0.0691131
0.081583
0.0929399
0.101367
0.105265
0.103345
0.0949841
0.0805685
0.0612442
0.0383118
0.013049
0.0130395
0.0382295
0.0609574
0.0799275
0.0938757
0.101737
0.103241
0.0991354
0.0907872
0.0797819
0.0678553
0.0566965
0.0474325
0.0402765
0.0347052
0.0299103
0.0250875
0.0194544
0.0122336
0.00278511
-0.00919383
-0.023597
-0.039967
-0.0574133
-0.0743872
-0.0887937
-0.0986253
-0.102667
-0.100821
-0.0940475
-0.0840733
-0.0728831
-0.0621361
-0.0528079
-0.0452565
-0.0395383
-0.035668
-0.0336678
-0.033427
-0.0344976
-0.035978
-0.0365661
-0.0348309
-0.02975
-0.0213229
-0.0107886
-0.000161026
0.0086638
0.0146154
0.0175049
0.0175047
0.0146148
0.0086632
-0.000161344
-0.0107884
-0.0213222
-0.0297487
-0.0348293
-0.0365641
-0.0359755
-0.0344947
-0.0334239
-0.0336647
-0.0356651
-0.0395358
-0.0452547
-0.0528069
-0.062136
-0.0728837
-0.0840745
-0.0940491
-0.100822
-0.102669
-0.0986279
-0.0887968
-0.0743908
-0.0574171
-0.0399707
-0.0236003
-0.00919639
0.00278354
0.0122332
0.0194553
0.0250898
0.029914
0.03471
0.040282
0.047438
0.0567014
0.0678591
0.0797843
0.0907882
0.099135
0.103239
0.101735
0.0938731
0.0799249
0.0609551
0.0382279
0.0130389
0.0130234
0.0381024
0.0605164
0.0789267
0.092113
0.0991137
0.0997807
0.0949761
0.086144
0.0748936
0.0629478
0.0519841
0.0431234
0.0365468
0.0316411
0.0274456
0.022957
0.0171844
0.00921003
-0.00160423
-0.0154294
-0.0319715
-0.0505692
-0.0701055
-0.0887937
-0.104352
-0.114711
-0.11873
-0.116459
-0.10897
-0.098007
-0.0855227
-0.0732002
-0.06214
-0.0528438
-0.045403
-0.0397113
-0.0356132
-0.0329551
-0.0314926
-0.0306775
-0.0294877
-0.0265577
-0.0207731
-0.012062
-0.00171989
0.00814499
0.015721
0.0203249
0.0223314
0.0223313
0.0203249
0.0157212
0.00814562
-0.00171876
-0.0120605
-0.0207712
-0.0265557
-0.0294855
-0.0306751
-0.0314901
-0.0329526
-0.035611
-0.0397096
-0.045402
-0.0528435
-0.0621403
-0.0732012
-0.0855243
-0.0980092
-0.108972
-0.116461
-0.118733
-0.114714
-0.104355
-0.0887968
-0.0701086
-0.050572
-0.0319737
-0.0154306
-0.00160428
0.00921129
0.0171869
0.0229607
0.0274502
0.0316462
0.036552
0.0431282
0.0519881
0.0629504
0.0748948
0.0861438
0.0949749
0.0997787
0.0991113
0.0921107
0.0789247
0.0605148
0.0381013
0.013023
0.013031
0.0380329
0.0601243
0.0778979
0.0901713
0.096093
0.0956337
0.0897557
0.0799949
0.0680445
0.0556957
0.0446773
0.0361361
0.0302288
0.0262408
0.0230371
0.0194009
0.0141325
0.0061704
-0.00515403
-0.0199455
-0.0377946
-0.0578783
-0.078845
-0.0986253
-0.114711
-0.124981
-0.128461
-0.125489
-0.117375
-0.105905
-0.0928995
-0.0799018
-0.0679971
-0.0577746
-0.0493783
-0.0426095
-0.0371043
-0.0325616
-0.028821
-0.025647
-0.0223856
-0.0179195
-0.0112184
-0.00221097
0.00781156
0.0167803
0.0230699
0.0263843
0.0275774
0.0275776
0.0263849
0.023071
0.0167819
0.00781364
-0.0022086
-0.0112159
-0.0179171
-0.0223833
-0.0256447
-0.0288189
-0.0325598
-0.0371031
-0.042609
-0.0493787
-0.0577757
-0.0679987
-0.0799039
-0.092902
-0.105908
-0.117378
-0.125492
-0.128464
-0.124984
-0.114714
-0.0986279
-0.0788473
-0.0578801
-0.0377956
-0.0199455
-0.00515271
0.00617304
0.0141363
0.0194056
0.0230422
0.0262458
0.0302334
0.0361398
0.04468
0.055697
0.0680445
0.0799938
0.0897538
0.0956314
0.0960908
0.0901695
0.0778966
0.0601236
0.0380325
0.0130308
0.0130172
0.0379098
0.0596619
0.0767795
0.0880986
0.0928662
0.0911559
0.0840159
0.073091
0.0602176
0.0473208
0.0362097
0.0280499
0.0229584
0.0201143
0.0182204
0.0158759
0.0117053
0.00450568
-0.00647681
-0.0213739
-0.0397397
-0.0606133
-0.0823841
-0.102667
-0.11873
-0.128461
-0.131152
-0.127542
-0.119236
-0.108027
-0.0954775
-0.0828323
-0.0710503
-0.0607828
-0.0522647
-0.0452406
-0.0391129
-0.0333313
-0.027698
-0.0222376
-0.0167401
-0.0105078
-0.00275758
0.00652797
0.0161397
0.0241836
0.0292989
0.0315301
0.0320721
0.0320725
0.0315313
0.0293008
0.024186
0.0161425
0.00653093
-0.00275471
-0.0105052
-0.0167378
-0.0222356
-0.0276964
-0.0333303
-0.0391126
-0.0452412
-0.0522661
-0.0607849
-0.071053
-0.0828353
-0.0954807
-0.10803
-0.119239
-0.127545
-0.131155
-0.128464
-0.118733
-0.102669
-0.0823856
-0.060614
-0.0397395
-0.0213727
-0.00647435
0.00450933
0.01171
0.0158812
0.0182257
0.020119
0.0229622
0.0280525
0.036211
0.0473209
0.0602167
0.0730892
0.0840136
0.0911537
0.0928644
0.0880974
0.076779
0.0596619
0.0379099
0.0130172
0.0128352
0.0373247
0.0585435
0.0749147
0.0852686
0.0889227
0.0860232
0.0776758
0.065628
0.0518801
0.0385065
0.027381
0.01966
0.0154192
0.0137728
0.013331
0.0125832
0.0100273
0.0043091
-0.00548906
-0.0196336
-0.0377174
-0.058662
-0.0805908
-0.100821
-0.116459
-0.125489
-0.127542
-0.123771
-0.116033
-0.106035
-0.0949592
-0.0836393
-0.072843
-0.063286