/*--------------------------------*- C++ -*----------------------------------*\
  =========                 |
  \\      /  F ield         | OpenFOAM: The Open Source CFD Toolbox
   \\    /   O peration     | Website:  https://openfoam.org
    \\  /    A nd           | Version:  10
     \\/     M anipulation  |
\*---------------------------------------------------------------------------*/
FoamFile
{
    format      ascii;
    class       volScalarField;
    location    "62";
    object      h;
}
// * * * * * * * * * * * * * * * * * * * * * * * * * * * * * * * * * * * * * //

dimensions      [0 1 0 0 0 0 0];

internalField   nonuniform List<scalar> 
10000
(
0.0024563
0.00732477
0.0116683
0.0146568
0.0159874
0.0159733
0.014806
0.0124605
0.00932148
0.00613623
0.00331115
0.00075783
-0.00160315
-0.00355652
-0.00484368
-0.00536944
-0.00524842
-0.00469926
-0.00390489
-0.00301613
-0.00222454
-0.00171009
-0.00145868
-0.00128373
-0.000973901
-0.000430641
0.000311384
0.00101775
0.00135493
0.00118571
0.00078408
0.000668548
0.00102004
0.00141273
0.00118673
1.35428e-05
-0.00173179
-0.00315263
-0.00363943
-0.00329441
-0.00269034
-0.00237235
-0.00241351
-0.00239921
-0.0019023
-0.000851837
0.000453038
0.00159385
0.00232167
0.00263907
0.00263907
0.00232167
0.00159384
0.000452997
-0.000851893
-0.00190235
-0.00239925
-0.00241355
-0.00237241
-0.00269045
-0.00329453
-0.0036395
-0.00315259
-0.00173164
1.37127e-05
0.00118679
0.0014126
0.00101976
0.0006683
0.000784038
0.00118594
0.00135532
0.0010181
0.000311478
-0.000430877
-0.000974353
-0.00128414
-0.00145877
-0.00170976
-0.00222393
-0.00301559
-0.00390476
-0.00469967
-0.00524928
-0.00537049
-0.00484464
-0.00355726
-0.00160372
0.000757337
0.00331069
0.00613596
0.00932171
0.0124616
0.0148079
0.0159758
0.0159902
0.0146596
0.0116705
0.00732617
0.00245677
0.00732477
0.0218138
0.0347044
0.0435901
0.0476166
0.0477091
0.0444085
0.0375868
0.0282877
0.0186462
0.00989546
0.00191034
-0.00538962
-0.0112839
-0.015027
-0.016449
-0.0160211
-0.0144521
-0.0122388
-0.00970654
-0.00730893
-0.00555203
-0.00448484
-0.00370175
-0.00267936
-0.00111555
0.000994195
0.00309374
0.00427798
0.00411419
0.00329335
0.0032013
0.00429329
0.00533734
0.00448095
0.000861754
-0.00435473
-0.00854155
-0.00995226
-0.00893135
-0.00717973
-0.00628114
-0.00641616
-0.00634708
-0.00482675
-0.00167684
0.00219291
0.00554069
0.00764994
0.00855784
0.00855785
0.00764996
0.00554066
0.00219279
-0.00167703
-0.00482694
-0.00634722
-0.00641625
-0.00628124
-0.0071799
-0.00893154
-0.00995235
-0.0085414
-0.00435433
0.0008622
0.00448113
0.00533709
0.00429273
0.0032008
0.00329333
0.00411478
0.00427893
0.00309458
0.000994507
-0.00111593
-0.00268021
-0.00370257
-0.00448507
-0.0055514
-0.00730775
-0.00970551
-0.0122387
-0.0144533
-0.0160234
-0.016452
-0.0150299
-0.0112864
-0.00539163
0.00190873
0.00989424
0.0186457
0.0282889
0.0375901
0.0444141
0.0477165
0.047625
0.0435983
0.034711
0.0218179
0.00732617
0.0116683
0.0347044
0.0551566
0.0693385
0.0760117
0.0766541
0.0720411
0.0617871
0.0472762
0.0316923
0.0170536
0.00346457
-0.00885253
-0.0185574
-0.0245029
-0.0266689
-0.0260906
-0.0239973
-0.0210198
-0.0173566
-0.0134692
-0.0101383
-0.00769829
-0.00587031
-0.00405803
-0.00174213
0.00134021
0.00461394
0.00681418
0.00719673
0.00662325
0.00699857
0.00886817
0.0102875
0.00846739
0.00225514
-0.00632586
-0.0130718
-0.0152726
-0.0135793
-0.010775
-0.00937628
-0.00960459
-0.00942694
-0.00684058
-0.00160189
0.00477179
0.0102455
0.0136699
0.0151359
0.015136
0.0136699
0.0102455
0.00477159
-0.00160224
-0.00684096
-0.00942723
-0.00960471
-0.0093763
-0.010775
-0.0135793
-0.0152726
-0.0130717
-0.00632541
0.00225569
0.00846771
0.0102874
0.00886778
0.00699826
0.00662336
0.00719734
0.00681504
0.0046147
0.00134063
-0.00174213
-0.00405836
-0.00587072
-0.00769845
-0.010138
-0.0134686
-0.0173562
-0.0210202
-0.023999
-0.0260937
-0.0266732
-0.0245078
-0.018562
-0.00885645
0.00346171
0.017052
0.0316926
0.0472791
0.0617932
0.0720503
0.0766656
0.0760245
0.069351
0.055167
0.034711
0.0116705
0.0146568
0.0435901
0.0693385
0.0874493
0.0965241
0.0984347
0.0939855
0.0823396
0.0648074
0.0451197
0.0258928
0.0076107
-0.00904161
-0.0221267
-0.0301978
-0.0334718
-0.0335276
-0.031937
-0.0291989
-0.0251316
-0.0200566
-0.0150449
-0.0109308
-0.00784028
-0.00528178
-0.00251959
0.00107719
0.0050989
0.00810332
0.00910424
0.00902607
0.0100405
0.0126317
0.0142118
0.0112403
0.00244048
-0.0092986
-0.0183877
-0.0213009
-0.0189956
-0.0152463
-0.0133971
-0.0136834
-0.0133512
-0.00970638
-0.00242981
0.00641893
0.0140584
0.0188929
0.0210005
0.0210006
0.018893
0.0140584
0.00641861
-0.00243038
-0.009707
-0.0133516
-0.0136836
-0.013397
-0.0152461
-0.0189956
-0.021301
-0.0183877
-0.00929834
0.00244097
0.0112408
0.0142121
0.0126318
0.0100405
0.00902626
0.00910456
0.00810358
0.00509907
0.00107743
-0.00251912
-0.00528113
-0.00783972
-0.0109306
-0.0150449
-0.020057
-0.0251323
-0.0292001
-0.0319391
-0.033531
-0.0334767
-0.0302039
-0.0221332
-0.00904729
0.00760686
0.0258915
0.0451214
0.0648126
0.0823486
0.0939976
0.0984489
0.0965394
0.0874643
0.069351
0.0435983
0.0146596
0.0159874
0.0476166
0.0760117
0.0965241
0.107735
0.1116
0.108712
0.0977121
0.0795698
0.0581095
0.0362863
0.0149242
-0.00492961
-0.020951
-0.0314529
-0.036707
-0.0384884
-0.0383625
-0.036523
-0.0324366
-0.026404
-0.0198653
-0.0141938
-0.00990745
-0.00659209
-0.00331735
0.000791574
0.00539535
0.00891946
0.0102791
0.010558
0.0121369
0.0153806
0.0170994
0.01307
0.00192179
-0.0126813
-0.0239859
-0.0277428
-0.0251052
-0.0206525
-0.0184174
-0.018658
-0.0180456
-0.0133159
-0.00407395
0.00717102
0.0169712
0.0232883
0.0261159
0.026116
0.0232884
0.0169712
0.00717056
-0.00407477
-0.0133168
-0.0180462
-0.0186581
-0.0184171
-0.0206522
-0.0251052
-0.0277432
-0.0239863
-0.0126813
0.00192229
0.0130707
0.0171
0.015381
0.0121371
0.0105582
0.0102791
0.00891926
0.00539503
0.000791548
-0.00331669
-0.0065908
-0.00990606
-0.014193
-0.0198654
-0.026405
-0.0324384
-0.0365253
-0.0383653
-0.0384922
-0.0367123
-0.0314597
-0.0209584
-0.00493608
0.0149201
0.0362858
0.058113
0.0795775
0.0977234
0.108726
0.111616
0.107751
0.0965394
0.0760245
0.047625
0.0159902
0.0159733
0.0477091
0.0766541
0.0984347
0.1116
0.117771
0.11714
0.107983
0.0909284
0.0695987
0.0470231
0.0241881
0.00222357
-0.016461
-0.029916
-0.0380817
-0.0424234
-0.0441825
-0.0432914
-0.0391674
-0.0323642
-0.0247154
-0.0179439
-0.0126939
-0.0084643
-0.00419116
0.000962184
0.00646491
0.0105646
0.0122192
0.0128072
0.0149091
0.0187591
0.0206531
0.0157797
0.00267771
-0.0143835
-0.0277865
-0.032676
-0.0302273
-0.0255184
-0.0230299
-0.0230277
-0.0218224
-0.0158192
-0.004647
0.00879502
0.0205177
0.0281415
0.0316095
0.0316096
0.0281417
0.0205177
0.00879446
-0.00464805
-0.0158204
-0.0218232
-0.0230278
-0.0230294
-0.0255179
-0.0302272
-0.0326763
-0.0277869
-0.0143834
0.00267839
0.0157807
0.0206539
0.0187594
0.0149091
0.0128072
0.0122194
0.0105646
0.00646477
0.000962197
-0.00419059
-0.00846305
-0.0126924
-0.0179428
-0.0247154
-0.0323655
-0.03917
-0.043295
-0.0441869
-0.0424285
-0.0380877
-0.0299228
-0.016468
0.00221781
0.0241851
0.0470238
0.0696038
0.0909378
0.107996
0.117155
0.117787
0.111616
0.0984489
0.0766656
0.0477165
0.0159758
0.014806
0.0444085
0.0720411
0.0939855
0.108712
0.11714
0.118999
0.112505
0.0980489
0.0787762
0.0574437
0.0349307
0.0121331
-0.00872289
-0.0253595
-0.0370033
-0.0444023
-0.0483162
-0.0485629
-0.0447769
-0.0378781
-0.0299402
-0.0227507
-0.0168439
-0.0115727
-0.00587921
0.000775154
0.00749598
0.0123717
0.0145074
0.0155757
0.0182246
0.0225179
0.0244199
0.0187788
0.00413857
-0.0148231
-0.0300227
-0.0362187
-0.0344663
-0.0299866
-0.0273971
-0.0269195
-0.0247294
-0.0171871
-0.00408769
0.0113255
0.0246687
0.0333572
0.0373444
0.0373445
0.0333574
0.0246687
0.0113249
-0.00408889
-0.0171885
-0.0247304
-0.0269197
-0.0273966
-0.0299859
-0.034466
-0.0362188
-0.0300229
-0.0148229
0.00413946
0.0187799
0.0244207
0.0225179
0.0182244
0.0155756
0.0145077
0.0123723
0.00749655
0.000775585
-0.00587871
-0.0115719
-0.0168429
-0.0227499
-0.0299401
-0.0378795
-0.0447801
-0.0485678
-0.0483223
-0.044409
-0.0370101
-0.0253658
-0.00872822
0.0121297
0.0349299
0.0574463
0.0787826
0.0980591
0.112518
0.119014
0.117155
0.108726
0.0939976
0.0720503
0.0444141
0.0148079
0.0124605
0.0375868
0.0617871
0.0823396
0.0977121
0.107983
0.112505
0.109722
0.0997826
0.0849418
0.0672469
0.04722
0.025331
0.00345076
-0.0158225
-0.0308638
-0.0415828
-0.0482524
-0.050607
-0.0484281
-0.0427597
-0.0356069
-0.0286369
-0.0223001
-0.0159819
-0.00883069
-0.000719308
0.00714024
0.0128218
0.0156415
0.017409
0.0205782
0.0249705
0.0264701
0.0199509
0.0041339
-0.0160839
-0.0325741
-0.0399887
-0.0391924
-0.0352586
-0.0326833
-0.0316054
-0.0282415
-0.019089
-0.00414095
0.0131187
0.0280323
0.0378352
0.0424101
0.0424102
0.0378353
0.0280321
0.013118
-0.00414225
-0.0190905
-0.0282426
-0.0316057
-0.0326829
-0.0352578
-0.0391918
-0.0399886
-0.0325741
-0.0160835
0.00413483
0.0199519
0.0264707
0.0249703
0.0205776
0.0174086
0.0156419
0.0128229
0.00714139
-0.000718425
-0.00883015
-0.0159816
-0.0222999
-0.028637
-0.0356076
-0.0427615
-0.0484318
-0.0506127
-0.0482596
-0.0415906
-0.0308708
-0.0158277
0.00344796
0.0253309
0.0472224
0.0672517
0.0849491
0.0997925
0.109734
0.112518
0.107996
0.0977234
0.0823486
0.0617932
0.0375901
0.0124616
0.00932148
0.0282877
0.0472762
0.0648074
0.0795698
0.0909284
0.0980489
0.0997826
0.0958742
0.0872491
0.0749247
0.0590542
0.039753
0.0184714
-0.0020617
-0.0195963
-0.0334042
-0.043366
-0.0489981
-0.0498643
-0.0466798
-0.0410792
-0.0345933
-0.0278107
-0.0204305
-0.0119708
-0.00269096
0.00605451
0.0125115
0.016229
0.0189287
0.022585
0.0266979
0.0273157
0.0197061
0.00294637
-0.0180074
-0.0353379
-0.0438406
-0.0441578
-0.0410109
-0.0386051
-0.0369921
-0.0325498
-0.0219781
-0.00538904
0.0136419
0.0302718
0.0414775
0.0468641
0.0468642
0.0414777
0.0302717
0.0136411
-0.00539046
-0.0219799
-0.0325513
-0.0369926
-0.0386048
-0.04101
-0.044157
-0.0438402
-0.0353378
-0.0180071
0.00294714
0.019707
0.0273163
0.0266977
0.0225844
0.0189283
0.0162293
0.0125125
0.00605582
-0.0026898
-0.0119701
-0.0204302
-0.0278111
-0.0345944
-0.0410811
-0.0466829
-0.0498688
-0.0490041
-0.0433732
-0.0334114
-0.0196023
-0.00206517
0.0184713
0.0397561
0.0590598
0.0749318
0.0872573
0.0958833
0.0997925
0.0980591
0.0909378
0.0795775
0.0648126
0.0472791
0.0282889
0.00932171
0.00613623
0.0186462
0.0316923
0.0451197
0.0581095
0.0695987
0.0787762
0.0849418
0.0872491
0.0850606
0.0783605
0.0672213
0.0516741
0.0326971
0.0127666
-0.00572058
-0.0217448
-0.0349012
-0.0443144
-0.0489859
-0.0489653
-0.0453627
-0.0396041
-0.0325397
-0.0242889
-0.0147615
-0.00452575
0.00504571
0.0124613
0.0174572
0.0214474
0.0257069
0.029366
0.0288324
0.020054
0.00257929
-0.018735
-0.0366573
-0.0462954
-0.0479981
-0.0459266
-0.0438407
-0.0417204
-0.0362428
-0.0243971
-0.00637327
0.0142756
0.0326231
0.0453599
0.0516731
0.0516733
0.0453603
0.0326231
0.0142749
-0.00637485
-0.0243991
-0.0362445
-0.0417211
-0.0438402
-0.0459253
-0.047997
-0.0462948
-0.0366573
-0.018735
0.00257973
0.0200549
0.0288332
0.0293663
0.0257067
0.0214472
0.0174574
0.0124622
0.00504696
-0.00452454
-0.0147606
-0.0242888
-0.0325406
-0.0396063
-0.0453663
-0.04897
-0.0489915
-0.0443204
-0.0349072
-0.02175
-0.00572427
0.0127654
0.0326992
0.0516794
0.0672289
0.0783693
0.0850693
0.0872573
0.0849491
0.0787826
0.0696038
0.058113
0.0451214
0.0316926
0.0186457
0.00613595
0.00331115
0.00989546
0.0170536
0.0258928
0.0362863
0.0470231
0.0574437
0.0672469
0.0749247
0.0783605
0.0767681
0.0704827
0.0596378
0.0445745
0.0270609
0.00920208
-0.00790684
-0.0236027
-0.0365511
-0.0451192
-0.0486443
-0.0476862
-0.0434782
-0.0369753
-0.0285626
-0.0184486
-0.00746584
0.00300457
0.0117067
0.0184583
0.0241691
0.0292705
0.0325163
0.0308308
0.0210429
0.00319664
-0.0181485
-0.0365752
-0.0475764
-0.0510429
-0.0503016
-0.0484944
-0.045589
-0.0387927
-0.0255799
-0.00626666
0.0157037
0.0354864
0.0495787
0.0567353
0.0567354
0.049579
0.0354863
0.0157028
-0.00626839
-0.025582
-0.0387946
-0.0455896
-0.0484936
-0.0503
-0.0510413
-0.0475755
-0.0365752
-0.0181489
0.00319663
0.0210435
0.0308316
0.032517
0.0292709
0.0241694
0.0184589
0.0117077
0.00300574
-0.00746487
-0.0184482
-0.0285631
-0.0369771
-0.0434816
-0.0476913
-0.0486505
-0.0451256
-0.0365567
-0.0236068
-0.00790913
0.00920169
0.0270626
0.0445786
0.0596443
0.070491
0.0767773
0.0783693
0.0749318
0.0672517
0.0574463
0.0470238
0.0362858
0.0258915
0.017052
0.00989423
0.00331069
0.00075783
0.00191034
0.00346457
0.0076107
0.0149242
0.0241881
0.0349307
0.04722
0.0590542
0.0672213
0.0704827
0.069527
0.0644681
0.0547327
0.0410504
0.0250661
0.00797953
-0.00926514
-0.0250039
-0.0372006
-0.0446388
-0.0473026
-0.0459786
-0.0413762
-0.0338875
-0.0239292
-0.0125984
-0.00131881
0.00883345
0.0176408
0.0253438
0.0314515
0.0343757
0.0316805
0.0211851
0.00336131
-0.0177536
-0.0367174
-0.0493714
-0.0549113
-0.0555563
-0.0537255
-0.0495335
-0.0410177
-0.0263412
-0.00595658
0.0169442
0.0378093
0.0530476
0.0609537
0.0609537
0.0530474
0.0378087
0.016943
-0.00595837
-0.0263432
-0.0410194
-0.049534
-0.0537247
-0.0555545
-0.0549095
-0.0493703
-0.0367173
-0.0177542
0.0033609
0.0211853
0.0316813
0.0343765
0.0314522
0.0253445
0.0176417
0.00883455
-0.00131786
-0.0125981
-0.0239299
-0.0338894
-0.0413794
-0.0459832
-0.0473084
-0.0446454
-0.0372067
-0.0250084
-0.00926706
0.00798035
0.0250692
0.0410553
0.0547389
0.0644753
0.069535
0.070491
0.0672289
0.0590598
0.0472224
0.0349299
0.0241851
0.0149201
0.00760685
0.0034617
0.00190872
0.000757328
-0.00160315
-0.00538962
-0.00885253
-0.00904161
-0.00492961
0.00222357
0.0121331
0.025331
0.039753
0.0516741
0.0596378
0.0644681
0.0659266
0.0623401
0.0533623
0.040279
0.0245144
0.00721171
-0.00997929
-0.0250133
-0.0363105
-0.0431946
-0.0457197
-0.0440533
-0.0384305
-0.0294349
-0.0183866
-0.00669813
0.00474125
0.0155835
0.0252668
0.0323521
0.0349777
0.0314306
0.0205355
0.00305747
-0.0176986
-0.0373368
-0.0519301
-0.0597548
-0.0617488
-0.0596152
-0.0538187
-0.0434662
-0.0274919
-0.00638799
0.0170858
0.0388383
0.0552009
0.0638865
0.0638863
0.0552003
0.0388372
0.0170844
-0.00638975
-0.0274937
-0.0434675
-0.0538191
-0.0596145
-0.0617471
-0.059753
-0.051929
-0.0373367
-0.0176991
0.00305698
0.0205356
0.0314313
0.0349787
0.0323531
0.0252677
0.0155844
0.00474211
-0.00669773
-0.0183872
-0.029437
-0.0384341
-0.044058
-0.0457251
-0.0432004
-0.0363161
-0.0250178
-0.00998181
0.00721204
0.0245178
0.0402849
0.0533698
0.0623482
0.0659344
0.0644753
0.0596443
0.0516794
0.0397561
0.0253309
0.0121297
0.00221781
-0.00493608
-0.0090473
-0.00885646
-0.00539164
-0.00160373
-0.00355652
-0.0112839
-0.0185574
-0.0221267
-0.020951
-0.016461
-0.00872289
0.00345076
0.0184714
0.0326971
0.0445745
0.0547327
0.0623401
0.0647471
0.0607902
0.0515716
0.0387191
0.0233067
0.00653219
-0.00991348
-0.0242053
-0.0349335
-0.041292
-0.042843
-0.0396511
-0.0324158
-0.0225069
-0.0111264
0.00111202
0.0136652
0.0250778
0.032984
0.0353333
0.0311664
0.0202536
0.00349363
-0.0167129
-0.0370489
-0.0537335
-0.0640105
-0.0674695
-0.0651103
-0.0578303
-0.0458646
-0.0288836
-0.00732314
0.0165773
0.0392329
0.0568381
0.0663982
0.066398
0.0568374
0.0392319
0.0165759
-0.00732476
-0.0288852
-0.0458659
-0.0578308
-0.0651098
-0.0674681
-0.0640089
-0.0537323
-0.0370486
-0.0167132
0.00349336
0.020254
0.0311675
0.0353347
0.0329853
0.0250787
0.0136657
0.0011121
-0.0111269
-0.0225087
-0.0324191
-0.0396559
-0.0428485
-0.0412975
-0.0349383
-0.0242089
-0.00991546
0.0065323
0.0233093
0.0387243
0.051579
0.0607991
0.0647562
0.0623482
0.0547389
0.0445786
0.0326992
0.0184713
0.00344796
-0.00872822
-0.016468
-0.0209584
-0.0221332
-0.018562
-0.0112864
-0.00355727
-0.00484368
-0.015027
-0.0245029
-0.0301978
-0.0314529
-0.029916
-0.0253595
-0.0158225
-0.0020617
0.0127666
0.0270609
0.0410504
0.0533623
0.0607902
0.0617111
0.0570741
0.0484817
0.0366248
0.0219571
0.0056457
-0.0102873
-0.0237451
-0.033184
-0.0377252
-0.0373222
-0.0326608
-0.0248636
-0.0146502
-0.00226362
0.0114984
0.0242458
0.0327727
0.0349582
0.030604
0.0203155
0.00494447
-0.0141836
-0.0348936
-0.0535522
-0.066363
-0.071534
-0.0693034
-0.060933
-0.0476971
-0.0299215
-0.00794791
0.0164887
0.0402555
0.0593198
0.0698875
0.0698874
0.0593193
0.0402548
0.0164877
-0.00794924
-0.029923
-0.0476984
-0.0609338
-0.0693033
-0.071533
-0.0663615
-0.0535509
-0.0348929
-0.0141835
0.00494457
0.0203162
0.0306054
0.03496
0.0327741
0.0242463
0.011498
-0.00226484
-0.0146522
-0.0248665
-0.0326649
-0.0373273
-0.0377307
-0.0331889
-0.0237485
-0.0102887
0.00564645
0.02196
0.0366296
0.0484881
0.057082
0.0617199
0.0607991
0.0533698
0.0410553
0.0270626
0.0127654
-0.00206517
-0.0158277
-0.0253658
-0.0299228
-0.0314597
-0.0302039
-0.0245078
-0.0150299
-0.00484464
-0.00536944
-0.016449
-0.0266689
-0.0334718
-0.036707
-0.0380817
-0.0370033
-0.0308638
-0.0195963
-0.00572058
0.00920208
0.0250661
0.040279
0.0515716
0.0570741
0.0573874
0.0537681
0.0463619
0.0348673
0.0199497
0.00376932
-0.011087
-0.0226276
-0.0297766
-0.0324087
-0.0310066
-0.0261513
-0.0178827
-0.00605569
0.00821632
0.0216551
0.0304059
0.0324549
0.0283577
0.019391
0.00614316
-0.0113018
-0.0319517
-0.0523125
-0.0675519
-0.0744964
-0.0726127
-0.0634886
-0.0493375
-0.031034
-0.00873874
0.0163555
0.041515
0.0623542
0.0741391
0.0741389
0.0623537
0.0415143
0.0163547
-0.00873975
-0.0310352
-0.0493388
-0.0634896
-0.072613
-0.0744957
-0.0675505
-0.0523109
-0.0319505
-0.0113011
0.00614359
0.0193917
0.028359
0.0324565
0.030407
0.021655
0.00821485
-0.00605828
-0.0178861
-0.0261552
-0.031011
-0.0324135
-0.0297812
-0.0226312
-0.0110888
0.00376985
0.0199528
0.0348725
0.0463686
0.0537756
0.0573952
0.057082
0.051579
0.0402849
0.0250692
0.00920169
-0.00572427
-0.0196023
-0.0308708
-0.0370101
-0.0380877
-0.0367123
-0.0334767
-0.0266732
-0.016452
-0.00537049
-0.00524842
-0.0160211
-0.0260906
-0.0335276
-0.0384884
-0.0424234
-0.0444023
-0.0415828
-0.0334042
-0.0217448
-0.00790684
0.00797953
0.0245144
0.0387191
0.0484817
0.0537681
0.055267
0.0526396
0.0450091
0.0325904
0.0175171
0.00257239
-0.0100969
-0.0193834
-0.0250365
-0.0271517
-0.0255982
-0.0197141
-0.00906926
0.00485578
0.0180525
0.0263209
0.0279735
0.0242723
0.016931
0.0060512
-0.00958421
-0.0300412
-0.0518327
-0.0690922
-0.0773895
-0.0756142
-0.0658082
-0.0510869
-0.0327309
-0.0105308
0.0150161
0.041583
0.0643318
0.0774587
0.0774583
0.064331
0.0415819
0.0150151
-0.0105317
-0.0327318
-0.0510879
-0.0658091
-0.0756146
-0.077389
-0.0690907
-0.0518307
-0.0300393
-0.00958294
0.0060518
0.0169314
0.0242729
0.0279741
0.0263211
0.0180516
0.00485349
-0.00907275
-0.0197182
-0.0256025
-0.0271559
-0.0250404
-0.0193864
-0.0100986
0.0025725
0.0175194
0.0325951
0.0450158
0.0526475
0.0552751
0.0537756
0.0484881
0.0387243
0.0245178
0.00798034
-0.00790913
-0.0217501
-0.0334114
-0.0415906
-0.044409
-0.0424285
-0.0384922
-0.033531
-0.0260937
-0.0160234
-0.00524928
-0.00469926
-0.0144521
-0.0239973
-0.031937
-0.0383625
-0.0441825
-0.0483162
-0.0482524
-0.043366
-0.0349012
-0.0236027
-0.00926514
0.00721171
0.0233067
0.0366248
0.0463619
0.0526396
0.0548367
0.0516822
0.0428905
0.0303031
0.0166068
0.00390208
-0.00673921
-0.0148796
-0.0201231
-0.0216039
-0.0180726
-0.00897329
0.00383278
0.0158339
0.022806
0.0235567
0.0199413
0.0138757
0.00486987
-0.0094381
-0.0298616
-0.0527379
-0.0712653
-0.0800544
-0.0777647
-0.0670887
-0.0520137
-0.0341035
-0.0126327
0.0127314
0.040133
0.0643464
0.078581
0.0785805
0.0643451
0.0401312
0.0127297
-0.012634
-0.0341044
-0.0520143
-0.0670891
-0.0777646
-0.0800536
-0.0712636
-0.0527356
-0.0298594
-0.00943662
0.00487029
0.0138753
0.0199406
0.0235561
0.0228052
0.0158323
0.0038301
-0.00897692
-0.0180767
-0.0216079
-0.0201266
-0.0148822
-0.00674046
0.00390247
0.016609
0.0303072
0.0428964
0.0516896
0.0548448
0.0526475
0.0463686
0.0366295
0.0233093
0.00721203
-0.00926707
-0.0236068
-0.0349072
-0.0433732
-0.0482596
-0.0483224
-0.0441869
-0.0383653
-0.0319391
-0.023999
-0.0144533
-0.00469967
-0.00390489
-0.0122388
-0.0210198
-0.0291989
-0.036523
-0.0432914
-0.0485629
-0.050607
-0.0489981
-0.0443144
-0.0365511
-0.0250039
-0.00997929
0.00653219
0.0219571
0.0348673
0.0450091
0.0516822
0.0533104
0.0490021
0.0400692
0.028901
0.0174273
0.00661618
-0.00293552
-0.0103527
-0.0141048
-0.0125
-0.00498222
0.00624617
0.0164109
0.0215123
0.0209085
0.0168794
0.0113741
0.00337654
-0.010281
-0.0307852
-0.0541966
-0.0730206
-0.0812931
-0.0777718
-0.0659125
-0.0505016
-0.0333278
-0.0131399
0.011256
0.0385546
0.0633561
0.0781752
0.0781745
0.0633544
0.0385524
0.0112538
-0.0131415
-0.0333286
-0.0505018
-0.0659121
-0.077771
-0.0812918
-0.0730186
-0.0541943
-0.0307831
-0.0102798
0.00337645
0.011373
0.0168777
0.0209068
0.0215106
0.0164088
0.00624347
-0.00498549
-0.0125034
-0.0141079
-0.0103551
-0.00293667
0.00661664
0.0174296
0.0289051
0.0400748
0.0490087
0.0533177
0.0516896
0.0450158
0.0348725
0.02196
0.00653229
-0.00998181
-0.0250084
-0.0365567
-0.0443204
-0.0490041
-0.0506127
-0.0485678
-0.043295
-0.0365253
-0.0292001
-0.0210202
-0.0122387
-0.00390475
-0.00301613
-0.00970654
-0.0173566
-0.0251316
-0.0324366
-0.0391674
-0.0447769
-0.0484281
-0.0498643
-0.0489859
-0.0451192
-0.0372006
-0.0250133
-0.00991348
0.0056457
0.0199497
0.0325904
0.0428905
0.0490021
0.0494128
0.0448301
0.0372573
0.0283275
0.0187416
0.00909962
0.00065517
-0.00448511
-0.0042898
0.00174232
0.0111643
0.0191819
0.0221959
0.0200817
0.0153451
0.00983548
0.00212902
-0.011399
-0.0320025
-0.0554449
-0.0737986
-0.0808388
-0.0756272
-0.0624017
-0.046651
-0.030349
-0.011743
0.01122
0.0378216
0.062634
0.07769
0.0776893
0.0626321
0.0378192
0.0112179
-0.0117443
-0.0303494
-0.0466505
-0.0624008
-0.0756261
-0.0808373
-0.0737969
-0.0554431
-0.032001
-0.0113984
0.00212837
0.00983374
0.0153428
0.0200794
0.0221938
0.0191798
0.0111619
0.00173961
-0.00429241
-0.00448715
0.000654112
0.0090999
0.0187435
0.0283312
0.0372627
0.0448367
0.0494197
0.0490087
0.0428964
0.0325951
0.0199527
0.00564645
-0.00991547
-0.0250178
-0.0372067
-0.0451256
-0.0489915
-0.0498688
-0.0484319
-0.0447801
-0.03917
-0.0324384
-0.0251323
-0.0173562
-0.00970551
-0.00301559
-0.00222454
-0.00730893
-0.0134692
-0.0200566
-0.026404
-0.0323642
-0.0378781
-0.0427597
-0.0466798
-0.0489653
-0.0486443
-0.0446388
-0.0363105
-0.0242053
-0.0102873
0.00376932
0.0175171
0.0303031
0.0400692
0.0448301
0.0447741
0.0414787
0.0361142
0.028899
0.0202562
0.0117152
0.00586882
0.00498867
0.0094967
0.0168534
0.0225392
0.0235362
0.020168
0.0149144
0.00931643
0.00156042
-0.0122006
-0.0330631
-0.0564602
-0.074186
-0.0799315
-0.0731485
-0.0587916
-0.0428898
-0.0274963
-0.01035
0.0114098
0.0375516
0.0625502
0.0779422
0.0779416
0.0625486
0.0375496
0.0114084
-0.0103505
-0.0274958
-0.0428887
-0.0587904
-0.0731476
-0.0799308
-0.0741853
-0.0564594
-0.0330624
-0.0122006
0.00155946
0.00931454
0.0149121
0.0201658
0.0235343
0.0225375
0.0168515
0.00949462
0.00498683
0.00586779
0.0117154
0.0202579
0.0289022
0.0361189
0.0414847
0.0447808
0.0448367
0.0400748
0.0303072
0.0175194
0.00376984
-0.0102887
-0.0242089
-0.0363161
-0.0446454
-0.0486505
-0.0489701
-0.0466829
-0.0427615
-0.0378795
-0.0323655
-0.026405
-0.020057
-0.0134686
-0.00730775
-0.00222393
-0.00171009
-0.00555203
-0.0101383
-0.0150449
-0.0198653
-0.0247154
-0.0299402
-0.0356069
-0.0410792
-0.0453627
-0.0476862
-0.0473026
-0.0431946
-0.0349335
-0.0237451
-0.011087
0.00257239
0.0166068
0.028901
0.0372573
0.0414787
0.0426551
0.0413326
0.0371177
0.0301898
0.0222838
0.016328
0.0146593
0.0175818
0.0226679
0.0260232
0.02539
0.0214155
0.0162321
0.0107912
0.00284422
-0.0114968
-0.0329746
-0.0566538
-0.0741729
-0.0792542
-0.0716998
-0.0569529
-0.0412786
-0.0266492
-0.0103598
0.0110389
0.0375237
0.0632838
0.0793066
0.0793062
0.0632829
0.0375228
0.0110385
-0.0103593
-0.026648
-0.0412771
-0.0569518
-0.0716994
-0.0792546
-0.0741736
-0.0566543
-0.0329748
-0.0114971
0.00284339
0.0107897
0.0162301
0.0214137
0.0253885
0.026022
0.0226667
0.0175805
0.0146583
0.0163279
0.0222851
0.0301927
0.037122
0.0413379
0.0426609
0.0414847
0.0372627
0.0289051
0.016609
0.00257249
-0.0110889
-0.0237485
-0.0349383
-0.0432004
-0.0473084
-0.0476913
-0.0453663
-0.0410811
-0.0356076
-0.0299401
-0.0247154
-0.0198654
-0.0150449
-0.010138
-0.0055514
-0.00170976
-0.00145868
-0.00448484
-0.00769829
-0.0109308
-0.0141938
-0.0179439
-0.0227507
-0.0286369
-0.0345933
-0.0396041
-0.0434782
-0.0459786
-0.0457197
-0.041292
-0.033184
-0.0226276
-0.0100969
0.00390208
0.0174273
0.0283275
0.0361142
0.0413326
0.0438744
0.0428117
0.0381501
0.0317187
0.0264871
0.0245849
0.0261595
0.0291348
0.0305527
0.0289844
0.0251758
0.0205844
0.0153876
0.00699445
-0.00826275
-0.0306039
-0.0547958
-0.0725515
-0.0777603
-0.0704458
-0.0561848
-0.041112
-0.0270043
-0.0108989
0.0109145
0.0383327
0.0651659
0.0819344
0.0819343
0.0651657
0.0383327
0.0109149
-0.0108979
-0.0270028
-0.0411105
-0.0561839
-0.070446
-0.0777615
-0.0725532
-0.0547974
-0.0306048
-0.00826322
0.006994
0.0153868
0.0205832
0.0251744
0.0289833
0.0305518
0.0291342
0.0261591
0.0245849
0.0264881
0.0317211
0.038154
0.0428167
0.0438798
0.0413379
0.0361189
0.0283312
0.0174296
0.00390246
-0.0100986
-0.0226312
-0.0331889
-0.0412975
-0.0457251
-0.0459832
-0.0434816
-0.0396063
-0.0345944
-0.0286369
-0.0227499
-0.0179428
-0.014193
-0.0109306
-0.00769845
-0.00448507
-0.00145877
-0.00128373
-0.00370175
-0.00587031
-0.00784028
-0.00990745
-0.0126939
-0.0168439
-0.0223001
-0.0278107
-0.0325397
-0.0369753
-0.0413762
-0.0440533
-0.042843
-0.0377252
-0.0297766
-0.0193834
-0.00673921
0.00661618
0.0187416
0.028899
0.0371177
0.0428117
0.0447899
0.0429949
0.039131
0.0357925
0.0345974
0.03551
0.0369877
0.037156
0.035333
0.0321199
0.0281269
0.0228182
0.0135601
-0.00277334
-0.0257847
-0.0501415
-0.0679503
-0.073448
-0.0668061
-0.0534913
-0.0392924
-0.0257744
-0.00986794
0.0122337
0.0402817
0.0678095
0.0850698
0.0850698
0.0678094
0.0402818
0.0122342
-0.00986702
-0.0257732
-0.0392913
-0.0534908
-0.0668066
-0.0734494
-0.0679522
-0.0501433
-0.0257857
-0.00277369
0.0135601
0.0228181
0.0281263
0.032119
0.0353322
0.0371554
0.0369875
0.0355104
0.0345985
0.0357944
0.0391341
0.0429991
0.0447948
0.0428167
0.037122
0.0289022
0.0187435
0.00661662
-0.00674047
-0.0193865
-0.0297812
-0.0377307
-0.0428485
-0.044058
-0.0413794
-0.0369771
-0.0325406
-0.0278111
-0.0222999
-0.0168429
-0.0126924
-0.00990606
-0.00783972
-0.00587072
-0.00370257
-0.00128413
-0.000973901
-0.00267936
-0.00405803
-0.00528178
-0.00659209
-0.0084643
-0.0115727
-0.0159819
-0.0204305
-0.0242889
-0.0285626
-0.0338875
-0.0384305
-0.0396511
-0.0373222
-0.0324087
-0.0250365
-0.0148796
-0.00293552
0.00909962
0.0202562
0.0301898
0.0381501
0.0429949
0.0446473
0.0443969
0.0440615
0.0445193
0.0455369
0.0461774
0.0456246
0.0437915
0.0409857
0.037017
0.0309211
0.0204235
0.00322405
-0.0196729
-0.0431113
-0.0599386
-0.0649772
-0.0586267
-0.0462193
-0.0331741
-0.0208732
-0.00615722
0.0149566
0.04226
0.0693014
0.0863736
0.0863735
0.0693011
0.0422597
0.0149565
-0.00615696
-0.0208726
-0.0331734
-0.046219
-0.0586271
-0.0649782
-0.05994
-0.0431126
-0.0196735
0.00322408
0.0204239
0.0309214
0.0370169
0.0409853
0.0437909
0.0456242
0.0461775
0.0455379
0.0445211
0.0440643
0.0444005
0.0446513
0.0429991
0.0381539
0.0301927
0.0202579
0.00909988
-0.00293669
-0.0148822
-0.0250404
-0.0324135
-0.0373273
-0.0396559
-0.0384341
-0.0338894
-0.0285631
-0.0242888
-0.0204302
-0.0159816
-0.0115719
-0.00846305
-0.0065908
-0.00528113
-0.00405836
-0.00268021
-0.00097435
-0.000430641
-0.00111555
-0.00174213
-0.00251959
-0.00331735
-0.00419116
-0.00587921
-0.00883069
-0.0119708
-0.0147615
-0.0184486
-0.0239292
-0.0294349
-0.0324158
-0.0326608
-0.0310066
-0.0271517
-0.0201231
-0.0103527
0.00065517
0.0117152
0.0222838
0.0317187
0.039131
0.0443969
0.0481811
0.0513022
0.0538145
0.0552965
0.05541
0.0542854
0.0522814
0.0493618
0.044711
0.0372945
0.0255597
0.00820681
-0.0132695
-0.0342131
-0.0485676
-0.0520097
-0.0453121
-0.0337006
-0.0222189
-0.0120678
2.31466e-05
0.0183236
0.0429232
0.0677952
0.0837033
0.0837031
0.0677947
0.0429224
0.0183227
2.25174e-05
-0.012068
-0.0222188
-0.0337004
-0.0453121
-0.0520101
-0.0485682
-0.0342136
-0.0132695
0.00820731
0.0255605
0.0372951
0.0447112
0.0493616
0.0522811
0.0542852
0.0554105
0.0552978
0.0538167
0.0513052
0.0481845
0.0444005
0.0391341
0.0317211
0.0222851
0.0117154
0.000654098
-0.0103551
-0.0201266
-0.0271559
-0.031011
-0.0326649
-0.0324191
-0.029437
-0.0239299
-0.0184482
-0.0147606
-0.0119701
-0.00883014
-0.00587871
-0.00419059
-0.00331669
-0.00251911
-0.00174213
-0.00111593
-0.000430875
0.000311384
0.000994195
0.00134021
0.00107719
0.000791574
0.000962184
0.000775154
-0.000719308
-0.00269096
-0.00452575
-0.00746584
-0.0125984
-0.0183866
-0.0225069
-0.0248636
-0.0261513
-0.0255982
-0.0216039
-0.0141048
-0.00448511
0.00586882
0.016328
0.0264871
0.0357925
0.0440615
0.0513022
0.0573336
0.0614577
0.0631569
0.0627015
0.0610322
0.0587698
0.0554588
0.0498131
0.0410294
0.028522
0.0120424
-0.00662437
-0.0236522
-0.0343858
-0.0355437
-0.0282918
-0.0176393
-0.00816622
-0.000889536
0.00751166
0.0215844
0.041886
0.0631678
0.0770644
0.0770643
0.0631673
0.0418851
0.0215833
0.00751063
-0.000890211
-0.00816638
-0.017639
-0.0282914
-0.0355434
-0.0343857
-0.023652
-0.00662392
0.0120432
0.028523
0.0410302
0.0498136
0.0554589
0.0587697
0.0610323
0.0627022
0.0631584
0.0614599
0.0573364
0.0513052
0.0440643
0.0357944
0.0264881
0.0163279
0.00586777
-0.00448716
-0.0141079
-0.0216079
-0.0256026
-0.0261552
-0.0248665
-0.0225087
-0.0183872
-0.0125981
-0.00746487
-0.00452454
-0.0026898
-0.000718423
0.000775587
0.000962198
0.000791551
0.00107744
0.00134063
0.000994506
0.000311479
0.00101775
0.00309374
0.00461394
0.0050989
0.00539535
0.00646491
0.00749598
0.00714024
0.00605451
0.00504571
0.00300457
-0.00131881
-0.00669813
-0.0111264
-0.0146502
-0.0178827
-0.0197141
-0.0180726
-0.0125
-0.0042898
0.00498867
0.0146593
0.0245849
0.0345974
0.0445193
0.0538145
0.0614577
0.0662092
0.0676527
0.0666855
0.0648423
0.0627032
0.059241
0.052802
0.0430237
0.0303989
0.015667
0.000661047
-0.0118788
-0.0188236
-0.0178896
-0.0104346
-0.00102988
0.00627437
0.01058
0.0151244
0.0246295
0.0401606
0.0573881
0.068976
0.068976
0.057388
0.0401603
0.024629
0.0151238
0.0105797
0.00627439
-0.00102944
-0.0104338
-0.0178889