/*--------------------------------*- C++ -*----------------------------------*\
  =========                 |
  \\      /  F ield         | OpenFOAM: The Open Source CFD Toolbox
   \\    /   O peration     | Website:  https://openfoam.org
    \\  /    A nd           | Version:  10
     \\/     M anipulation  |
\*---------------------------------------------------------------------------*/
FoamFile
{
    format      ascii;
    class       volScalarField;
    location    "56";
    object      h;
}
// * * * * * * * * * * * * * * * * * * * * * * * * * * * * * * * * * * * * * //

dimensions      [0 1 0 0 0 0 0];

internalField   nonuniform List<scalar> 
10000
(
0.000447674
0.00109675
0.00130127
0.0014297
0.00192887
0.00274666
0.00344665
0.00379586
0.00403757
0.00444759
0.00505048
0.00580836
0.00665867
0.00714541
0.00656109
0.00490731
0.0031319
0.00198743
0.000943451
-0.00111216
-0.00454633
-0.00873823
-0.012578
-0.0149881
-0.0153773
-0.0141071
-0.0122071
-0.0103791
-0.00858093
-0.00655483
-0.00411993
-0.00130531
0.00151156
0.00377906
0.00505668
0.00527887
0.00472752
0.00375454
0.00271214
0.00193656
0.00152344
0.00143581
0.00164315
0.00205845
0.00257764
0.00314593
0.0036947
0.00416903
0.00452056
0.00470064
0.0047004
0.00451988
0.00416802
0.00369353
0.0031448
0.0025767
0.00205783
0.00164293
0.00143601
0.00152402
0.00193747
0.00271329
0.00375583
0.00472885
0.00528016
0.00505784
0.00378004
0.0015123
-0.00130483
-0.00411977
-0.00655504
-0.00858158
-0.0103803
-0.0122088
-0.0141091
-0.0153795
-0.0149903
-0.0125798
-0.00873943
-0.00454685
-0.00111203
0.000944076
0.00198838
0.00313309
0.00490865
0.00656241
0.00714648
0.00665939
0.00580879
0.00505071
0.00444765
0.00403751
0.00379577
0.00344657
0.00274657
0.00192876
0.00142963
0.00130127
0.0010968
0.000447699
0.00109675
0.00259159
0.00285001
0.00297713
0.00429611
0.00666786
0.00881971
0.0100582
0.0110586
0.0125968
0.0147255
0.0172994
0.0200824
0.0217044
0.0201166
0.0153613
0.0102203
0.00688701
0.00382639
-0.00219692
-0.0122662
-0.0245656
-0.035829
-0.0428854
-0.0440265
-0.0403383
-0.0348385
-0.0295936
-0.0245079
-0.0188383
-0.0120663
-0.00429377
0.00338052
0.00938291
0.0125136
0.0126867
0.0108259
0.00803296
0.00533757
0.00363686
0.00308037
0.00340351
0.0043781
0.00567674
0.00699264
0.00822915
0.00929669
0.0101503
0.0107558
0.0110537
0.011053
0.010754
0.0101476
0.0092936
0.00822613
0.00699011
0.00567503
0.0043774
0.0034039
0.0030818
0.00363922
0.00534066
0.00803655
0.0108297
0.0126905
0.012517
0.00938583
0.00338269
-0.00429251
-0.0120661
-0.0188391
-0.02451
-0.0295969
-0.0348431
-0.040344
-0.0440326
-0.0428913
-0.0358338
-0.0245688
-0.0122675
-0.00219638
0.00382825
0.00688973
0.0102236
0.0153651
0.0201203
0.0217075
0.0200845
0.0173006
0.014726
0.0125968
0.0110583
0.0100578
0.00881934
0.00666743
0.00429566
0.00297679
0.00284992
0.00259167
0.0010968
0.00130127
0.00285001
0.00259704
0.00235077
0.00423261
0.00804766
0.0117857
0.0143135
0.0165977
0.0197837
0.0239138
0.028673
0.0335386
0.0362516
0.0336608
0.0259821
0.0176813
0.0122271
0.00724848
-0.00232703
-0.018263
-0.0377091
-0.0554491
-0.066413
-0.0679749
-0.0619641
-0.053199
-0.0450107
-0.0373293
-0.0289825
-0.019139
-0.00797319
0.00280292
0.0107996
0.0143466
0.0135739
0.0101884
0.0061131
0.00296603
0.00192484
0.00287996
0.00500429
0.00758122
0.00991297
0.0115117
0.0123912
0.0127024
0.0126754
0.0125381
0.0124168
0.012416
0.0125358
0.012672
0.0126985
0.0123873
0.0115083
0.00991059
0.00758008
0.00500452
0.00288159
0.00192783
0.00297023
0.00611829
0.0101943
0.0135799
0.0143522
0.0108044
0.00280633
-0.00797146
-0.0191391
-0.0289844
-0.0373329
-0.0450161
-0.0532059
-0.0619723
-0.0679837
-0.0664213
-0.0554557
-0.0377133
-0.0182645
-0.00232606
0.00725125
0.012231
0.0176862
0.0259878
0.0336665
0.0362564
0.0335419
0.0286749
0.0239147
0.0197838
0.0165973
0.0143127
0.0117849
0.00804669
0.00423158
0.00234993
0.00259662
0.00284993
0.00130127
0.0014297
0.00297713
0.00235077
0.0019257
0.00443916
0.00965447
0.0149805
0.0189109
0.0225454
0.0272607
0.0330984
0.0395605
0.0457522
0.0486353
0.0443619
0.0335416
0.0220933
0.0144959
0.00777955
-0.00454702
-0.0248931
-0.0496636
-0.072059
-0.0854558
-0.0866405
-0.0782225
-0.0665335
-0.055986
-0.0466035
-0.0368042
-0.025396
-0.0125486
-0.000398817
0.00810984
0.0111304
0.00916164
0.00469478
0.000430877
-0.00158616
-0.000206034
0.0039483
0.00924913
0.0142856
0.0179207
0.0195196
0.0193237
0.0179345
0.0160599
0.0143959
0.0134332
0.0134326
0.0143941
0.0160572
0.0179312
0.0193203
0.0195165
0.0179184
0.0142843
0.00924908
0.00394968
-0.000203124
-0.00158171
0.000436771
0.00470179
0.00916921
0.0111377
0.00811611
-0.000394436
-0.0125466
-0.0253966
-0.0368073
-0.0466087
-0.055993
-0.066542
-0.0782323
-0.0866508
-0.0854654
-0.0720666
-0.0496683
-0.0248948
-0.00454605
0.00778243
0.0145001
0.0220987
0.0335482
0.0443689
0.0486415
0.0457568
0.0395634
0.0330999
0.0272612
0.0225451
0.0189101
0.0149794
0.00965306
0.00443759
0.00192434
0.00234994
0.0029768
0.00142963
0.00192887
0.00429611
0.00423261
0.00443916
0.00798497
0.0145696
0.0212172
0.0261641
0.030504
0.0357353
0.0419801
0.0486437
0.054471
0.0558762
0.0488495
0.034655
0.0203347
0.0109854
0.00324746
-0.0103448
-0.0328477
-0.0603312
-0.0849065
-0.0988416
-0.0987145
-0.0879267
-0.0739442
-0.0619855
-0.0521767
-0.0424744
-0.031178
-0.0182743
-0.0060775
0.0021614
0.00458276
0.00198687
-0.00259488
-0.00589873
-0.00565184
-0.000917347
0.00716382
0.0162206
0.0241771
0.0295015
0.0314207
0.0303768
0.027422
0.0237353
0.0205189
0.0186974
0.0186971
0.0205182
0.0237343
0.0274205
0.0303752
0.031419
0.0295
0.0241762
0.0162205
0.00716492
-0.000914836
-0.00564777
-0.00589308
-0.00258787
0.00199472
0.00459064
0.00216827
-0.00607263
-0.0182722
-0.0311789
-0.042478
-0.0521827
-0.0619933
-0.0739535
-0.087937
-0.0987253
-0.0988517
-0.0849147
-0.0603365
-0.03285
-0.0103445
0.00324956
0.0109888
0.0203396
0.0346615
0.0488571
0.0558835
0.0544768
0.0486478
0.0419827
0.0357367
0.0305043
0.0261637
0.0212163
0.0145682
0.00798325
0.00443759
0.00423158
0.00429567
0.00192876
0.00274666
0.00666786
0.00804766
0.00965447
0.0145696
0.0223841
0.0299454
0.0353659
0.039601
0.0441547
0.0493242
0.0545682
0.0583684
0.0569023
0.0465531
0.029444
0.0132932
0.00329802
-0.00416003
-0.0170963
-0.0392194
-0.066718
-0.0911413
-0.10409
-0.102242
-0.0897107
-0.0746474
-0.0627474
-0.0542263
-0.0465174
-0.0372274
-0.0259325
-0.0148734
-0.00741995
-0.0054206
-0.00801017
-0.0120097
-0.0138802
-0.011254
-0.00341215
0.00820974
0.0207912
0.0317923
0.0393806
0.0425966
0.0419062
0.0386117
0.0341655
0.0301486
0.0278662
0.0278665
0.0301493
0.0341665
0.0386126
0.0419069
0.0425969
0.0393807
0.0317924
0.0207916
0.00821085
-0.00341007
-0.0112508
-0.0138757
-0.012004
-0.00800357
-0.0054138
-0.00741384
-0.0148689
-0.0259304
-0.0372281
-0.0465206
-0.0542317
-0.0627546
-0.0746561
-0.0897205
-0.102253
-0.1041
-0.0911496
-0.0667237
-0.0392223
-0.017097
-0.00415923
0.00329997
0.0132967
0.0294495
0.0465603
0.0569099
0.058375
0.0545733
0.0493279
0.0441572
0.0396024
0.0353663
0.0299451
0.0223831
0.0145682
0.00965305
0.00804669
0.00666744
0.00274657
0.00344665
0.00881971
0.0117857
0.0149805
0.0212172
0.0299454
0.0380577
0.0436833
0.0475067
0.0508741
0.0542774
0.0573484
0.0584141
0.0537042
0.0404262
0.0216125
0.00510573
-0.00435955
-0.0105498
-0.0215578
-0.0416161
-0.0673633
-0.0902251
-0.101502
-0.0981719
-0.0849006
-0.0700961
-0.059632
-0.0538432
-0.0496796
-0.0439774
-0.0357551
-0.0269991
-0.0210505
-0.0197524
-0.0223688
-0.0258672
-0.0266138
-0.0221608
-0.0119088
0.00265273
0.0185277
0.0328688
0.0435782
0.0494369
0.050745
0.0488184
0.045142
0.0414699
0.0393408
0.0393414
0.0414716
0.0451445
0.0488212
0.0507479
0.0494394
0.0435803
0.0328704
0.0185292
0.00265418
-0.0119071
-0.0221586
-0.0266109
-0.0258636
-0.0223647
-0.0197481
-0.0210466
-0.0269962
-0.0357537
-0.0439779
-0.0496817
-0.0538469
-0.0596372
-0.0701027
-0.0849086
-0.0981809
-0.101511
-0.090233
-0.067369
-0.0416194
-0.0215594
-0.0105503
-0.00435918
0.00510747
0.0216164
0.0404322
0.0537113
0.0584209
0.0573541
0.054282
0.0508776
0.0475091
0.0436847
0.0380582
0.0299451
0.0212162
0.0149794
0.0117849
0.00881934
0.00344657
0.00379586
0.0100582
0.0143135
0.0189109
0.0261641
0.0353659
0.0436833
0.0494251
0.0529148
0.0551636
0.056799
0.0576908
0.0561057
0.048538
0.0332451
0.0140307
-0.00171855
-0.0102031
-0.0151536
-0.024166
-0.0416691
-0.0648963
-0.0854849
-0.0947502
-0.0900833
-0.0765355
-0.0624507
-0.0537006
-0.0508688
-0.0506287
-0.0491607
-0.0449284
-0.0395736
-0.0362583
-0.0367282
-0.0403303
-0.0441749
-0.0445027
-0.0387058
-0.0262504
-0.00865293
0.0109373
0.0293282
0.044101
0.0537582
0.0583779
0.0591841
0.0575607
0.0552476
0.0538275
0.0538282
0.0552494
0.0575635
0.0591878
0.0583821
0.0537625
0.0441051
0.0293317
0.0109401
-0.00865084
-0.0262489
-0.0387045
-0.0445015
-0.0441735
-0.0403289
-0.0367269
-0.0362573
-0.0395731
-0.0449287
-0.0491616
-0.0506301
-0.0508707
-0.0537031
-0.0624543
-0.0765406
-0.0900899
-0.0947577
-0.0854918
-0.0649017
-0.0416728
-0.0241683
-0.0151552
-0.0102043
-0.00171874
0.0140326
0.0332494
0.0485439
0.056112
0.0576967
0.0568043
0.0551682
0.0529184
0.0494276
0.0436847
0.0353663
0.0261637
0.0189101
0.0143127
0.0100578
0.00379577
0.00403757
0.0110586
0.0165977
0.0225454
0.030504
0.039601
0.0475067
0.0529148
0.0558036
0.0567435
0.0564385
0.0550687
0.0509792
0.0411053
0.0247833
0.00627691
-0.00802613
-0.015578
-0.019822
-0.0272538
-0.0420681
-0.0621357
-0.0796375
-0.0862559
-0.07988
-0.0657625
-0.0519401
-0.0441705
-0.0434546
-0.046517
-0.0491645
-0.0494413
-0.0486032
-0.0494334
-0.053339
-0.0594568
-0.0647929
-0.0653204
-0.058207
-0.0430632
-0.0216473
0.00253657
0.0257835
0.0452661
0.0592674
0.0677207
0.0717932
0.0727793
0.0723119
0.0718714
0.0718718
0.0723133
0.0727817
0.0717967
0.0677252
0.0592727
0.0452715
0.0257884
0.00254058
-0.0216445
-0.0430615
-0.0582063
-0.0653204
-0.0647933
-0.0594575
-0.05334
-0.0494349
-0.0486052
-0.0494435
-0.0491665
-0.0465184
-0.0434551
-0.0441706
-0.0519405
-0.0657641
-0.0798835
-0.0862609
-0.079643
-0.0621406
-0.0420719
-0.0272569
-0.0198249
-0.0155809
-0.00802829
0.00627649
0.0247854
0.0411095
0.0509846
0.0550744
0.0564443
0.056749
0.0558083
0.0529184
0.0475091
0.0396024
0.0305044
0.0225451
0.0165973
0.0110583
0.00403751
0.00444759
0.0125968
0.0197837
0.0272607
0.0357353
0.0441547
0.0508741
0.0551636
0.0567435
0.055709
0.0528031
0.0486169
0.0418065
0.0299568
0.0134103
-0.00348472
-0.0157566
-0.0222338
-0.0258259
-0.0314834
-0.0428551
-0.0585555
-0.0717384
-0.0748736
-0.0663774
-0.0514329
-0.0375026
-0.0300894
-0.0306985
-0.0364295
-0.0430612
-0.0483955
-0.0532333
-0.0597192
-0.068628
-0.0785557
-0.0861721
-0.0871576
-0.0785376
-0.0602261
-0.0344516
-0.00521719
0.0231726
0.047444
0.0657246
0.0778566
0.0849784
0.0883792
0.0896151
0.0900544
0.0900547
0.0896161
0.0883811
0.0849812
0.0778606
0.0657295
0.0474494
0.0231779
-0.00521263
-0.0344484
-0.0602244
-0.0785373
-0.0871584
-0.0861737
-0.0785577
-0.0686305
-0.0597221
-0.0532367
-0.0483991
-0.0430643
-0.0364314
-0.0306986
-0.0300879
-0.0375005
-0.0514314
-0.0663776
-0.0748758
-0.0717419
-0.0585594
-0.0428589
-0.0314871
-0.0258298
-0.022238
-0.0157604
-0.00348724
0.0134101
0.0299589
0.0418103
0.0486217
0.0528086
0.0557148
0.056749
0.0551682
0.0508776
0.0441572
0.0357367
0.0272612
0.0197838
0.0125968
0.00444764
0.00505048
0.0147255
0.0239138
0.0330984
0.0419801
0.0493242
0.0542774
0.056799
0.0564385
0.0528031
0.0466237
0.0389857
0.0291354
0.0155404
-0.000578716
-0.015162
-0.0248952
-0.0298981
-0.0323411
-0.0354323
-0.0421927
-0.0522086
-0.0601163
-0.0595886
-0.0494623
-0.0344075
-0.0209388
-0.0141134
-0.0159477
-0.0241891
-0.0348987
-0.0457446
-0.056923
-0.0696783
-0.0839775
-0.0977779
-0.107471
-0.108687
-0.0985227
-0.0772652
-0.0476007
-0.0138869
0.0191197
0.0477526
0.0699726
0.0854268
0.095119
0.100394
0.10284
0.103834
0.103834
0.102841
0.100395
0.0951212
0.0854297
0.0699762
0.0477567
0.0191239
-0.013883
-0.0475979
-0.0772638
-0.0985229
-0.108689
-0.107473
-0.0977807
-0.0839804
-0.0696814
-0.0569264
-0.0457482
-0.0349019
-0.0241912
-0.0159479
-0.0141115
-0.0209355
-0.034404
-0.0494599
-0.0595881
-0.0601175
-0.052211
-0.0421958
-0.0354359
-0.0323453
-0.0299029
-0.0249001
-0.0151661
-0.000581061
0.0155402
0.029137
0.038989
0.0466283
0.0528086
0.0564443
0.0568043
0.054282
0.0493279
0.0419827
0.0330999
0.0239147
0.014726
0.0050507
0.00580836
0.0172994
0.028673
0.0395605
0.0486437
0.0545682
0.0573484
0.0576908
0.0550687
0.0486169
0.0389857
0.0277596
0.0149902
0.000195838
-0.0147433
-0.0264364
-0.0333302
-0.0365965
-0.0375154
-0.0375772
-0.0392457
-0.0432704
-0.0461353
-0.0429499
-0.0326931
-0.0189775
-0.0070078
-0.00128499
-0.00434637
-0.0148042
-0.0292297
-0.0451824
-0.0620782
-0.0801069
-0.0984905
-0.114785
-0.125453
-0.126463
-0.115173
-0.0921045
-0.0600908
-0.0234451
0.0129297
0.0450745
0.0707151
0.0891201
0.100984
0.107702
0.110963
0.112245
0.112245
0.110964
0.107704
0.100985
0.0891221
0.0707172
0.0450767
0.0129319
-0.0234431
-0.0600894
-0.0921042
-0.115174
-0.126465
-0.125456
-0.114789
-0.0984934
-0.0801094
-0.0620805
-0.0451847
-0.0292319
-0.0148059
-0.00434678
-0.00128367
-0.00700487
-0.0189737
-0.0326896
-0.0429475
-0.0461344
-0.043271
-0.0392476
-0.0375801
-0.0375194
-0.0366013
-0.0333355
-0.0264415
-0.0147473
0.000193478
0.0149897
0.027761
0.038989
0.0486217
0.0550744
0.0576967
0.0573541
0.0545733
0.0486478
0.0395634
0.0286749
0.0173006
0.00580879
0.00665867
0.0200824
0.0335386
0.0457522
0.054471
0.0583684
0.0584141
0.0561057
0.0509792
0.0418065
0.0291354
0.0149902
0.00032267
-0.0142823
-0.0266449
-0.0344904
-0.0381091
-0.0394439
-0.0388055
-0.0361311
-0.0334128
-0.03254
-0.0318783
-0.02792
-0.0193832
-0.00832803
0.00154334
0.00619206
0.00246857
-0.00927312
-0.0262468
-0.045879
-0.0667023
-0.0878882
-0.108219
-0.12529
-0.136007
-0.136918
-0.12563
-0.102572
-0.0703166
-0.0327752
0.00523564
0.0395508
0.0676494
0.0883664
0.102008
0.109981
0.113993
0.11554
0.11554
0.113994
0.109982
0.102009
0.0883677
0.0676503
0.0395512
0.00523553
-0.0327758
-0.0703176
-0.102573
-0.125632
-0.136921
-0.13601
-0.125293
-0.108222
-0.0878897
-0.0667032
-0.0458795
-0.0262473
-0.00927362
0.00246843
0.00619276
0.00154512
-0.00832526
-0.0193799
-0.0279169
-0.031876
-0.032539
-0.0334132
-0.036133
-0.0388088
-0.0394485
-0.0381145
-0.0344962
-0.0266502
-0.0142864
0.000320171
0.0149897
0.029137
0.0418103
0.0509846
0.056112
0.0584209
0.058375
0.0544768
0.0457568
0.0335419
0.0200845
0.00665939
0.00714541
0.0217044
0.0362516
0.0486353
0.0558762
0.0569023
0.0537042
0.048538
0.0411053
0.0299568
0.0155404
0.000195838
-0.0142823
-0.0263792
-0.0340621
-0.03664
-0.0363241
-0.0355665
-0.033685
-0.0292718
-0.023841
-0.020136
-0.0180948
-0.0153276
-0.00994453
-0.00218245
0.00571427
0.00991579
0.00654184
-0.00516239
-0.0230919
-0.0445361
-0.0672179
-0.089525
-0.110185
-0.127192
-0.138033
-0.139765
-0.130032
-0.108846
-0.0782936
-0.0418003
-0.00404316
0.030686
0.0597328
0.0816483
0.0964322
0.105465
0.110301
0.112222
0.112222
0.110301
0.105466
0.096433
0.0816489
0.0597327
0.030685
-0.00404518
-0.0418033
-0.078297
-0.108849
-0.130035
-0.139768
-0.138036
-0.127194
-0.110186
-0.0895257
-0.0672177
-0.0445353
-0.0230908
-0.00516145
0.0065426
0.00991653
0.00571526
-0.00218089
-0.00994223
-0.0153247
-0.018092
-0.0201338
-0.0238401
-0.0292724
-0.0336873
-0.0355702
-0.036329
-0.0366457
-0.0340681
-0.0263846
-0.0142864
0.000193475
0.0155402
0.0299589
0.0411095
0.0485439
0.0537113
0.0569099
0.0558835
0.0486415
0.0362563
0.0217075
0.00714648
0.00656109
0.0201166
0.0336608
0.0443619
0.0488495
0.0465531
0.0404262
0.0332451
0.0247833
0.0134103
-0.000578716
-0.0147433
-0.0266449
-0.0340621
-0.0354812
-0.0320876
-0.027927
-0.025624
-0.0234254
-0.0187279
-0.0124892
-0.00790416
-0.0060642
-0.00546454
-0.00352494
0.0012868
0.00794542
0.0125808
0.0105752
0.000138245
-0.017289
-0.0389525
-0.0620049
-0.0843271
-0.104811
-0.121932
-0.133597
-0.137124
-0.130056
-0.111912
-0.0843472
-0.0504106
-0.0146355
0.0186852
0.0469473
0.0686417
0.0835924
0.0931311
0.0985492
0.100777
0.100777
0.0985491
0.0931309
0.083592
0.068641
0.0469461
0.0186831
-0.0146387
-0.0504149
-0.0843522
-0.111918
-0.130061
-0.137127
-0.133599
-0.121934
-0.104811
-0.0843269
-0.0620041
-0.0389512
-0.0172872
0.000140178
0.010577
0.0125822
0.00794644
0.00128775
-0.00352355
-0.00546246
-0.00606158
-0.00790147
-0.012487
-0.0187269
-0.023426
-0.0256262
-0.0279306
-0.0320925
-0.0354871
-0.0340681
-0.0266502
-0.0147473
-0.000581059
0.0134101
0.0247854
0.0332494
0.0404322
0.0465603
0.0488571
0.0443689
0.0336665
0.0201203
0.0065624
0.00490731
0.0153613
0.0259821
0.0335416
0.034655
0.029444
0.0216125
0.0140307
0.00627691
-0.00348472
-0.015162
-0.0264364
-0.0344904
-0.03664
-0.0320876
-0.0238951
-0.0175993
-0.0155208
-0.0146217
-0.0111294
-0.00534725
-0.00061904
0.00103894
0.00020743
-0.00011703
0.00304823
0.00964942
0.0157169
0.0160343
0.00789901
-0.00793469
-0.0288372
-0.0516242
-0.073768
-0.0942185
-0.111732
-0.124394
-0.129699
-0.12524
-0.110272
-0.0862108
-0.0558305
-0.0234004
0.00699177
0.0329497
0.0530276
0.0669304
0.0759429
0.0811685
0.0832958
0.0832956
0.0811677
0.0759416
0.0669287
0.0530255
0.0329472
0.0069888
-0.023404
-0.055835
-0.086216
-0.110277
-0.125246
-0.129703
-0.124397
-0.111733
-0.0942184
-0.0737671
-0.0516229
-0.0288356
-0.00793283
0.00790111
0.0160365
0.0157188
0.00965084
0.00304917
-0.000116126
0.000208749
0.00104089
-0.000616528
-0.00534455
-0.0111273
-0.0146206
-0.015521
-0.0176009
-0.0238984
-0.0320925
-0.0366457
-0.0344962
-0.0264415
-0.0151661
-0.00348723
0.0062765
0.0140326
0.0216164
0.0294495
0.0346615
0.0335482
0.0259878
0.0153651
0.00490865
0.0031319
0.0102203
0.0176813
0.0220933
0.0203347
0.0132932
0.00510573
-0.00171855
-0.00802613
-0.0157566
-0.0248952
-0.0333302
-0.0381091
-0.0363241
-0.027927
-0.0175993
-0.0118232
-0.012101
-0.0138857
-0.0122557
-0.00688881
-0.00122753
0.00174408
0.00145272
0.000882225
0.00408819
0.0118445
0.0202007
0.0235257
0.0182851
0.00448496
-0.0154885
-0.0381698
-0.0604696
-0.0810473
-0.0986796
-0.111577
-0.117624
-0.114842
-0.102553
-0.0820746
-0.0558636
-0.0277123
-0.00132221
0.0211656
0.0383857
0.0499576
0.0571799
0.0611702
0.0626199
0.0626194
0.0611689
0.0571778
0.0499549
0.0383824
0.0211621
-0.00132581
-0.027716
-0.0558675
-0.082079
-0.102558
-0.114847
-0.117629
-0.11158
-0.0986808
-0.0810469
-0.0604681
-0.0381679
-0.0154865
0.00448678
0.0182868
0.0235275
0.0202025
0.011846
0.00408928
0.000883041
0.00145355
0.00174522
-0.00122583
-0.00688653
-0.0122533
-0.0138835
-0.0120995
-0.0118229
-0.0176009
-0.0279306
-0.036329
-0.0381145
-0.0333355
-0.0249001
-0.0157604
-0.00802828
-0.00171874
0.00510747
0.0132967
0.0203396
0.0220987
0.0176862
0.0102236
0.0031331
0.00198743
0.00688701
0.0122271
0.0144959
0.0109854
0.00329802
-0.00435955
-0.0102031
-0.015578
-0.0222338
-0.0298981
-0.0365965
-0.0394439
-0.0355665
-0.025624
-0.0155208
-0.012101
-0.0156974
-0.0202307
-0.0198188
-0.0137669
-0.00579622
-3.42225e-05
0.0016415
0.00195864
0.00585143
0.0149396
0.0254809
0.0315396
0.0287421
0.0163199
-0.00352255
-0.0268397
-0.0497063
-0.0702107
-0.0871402
-0.0990857
-0.104687
-0.102688
-0.0926168
-0.0756291
-0.0537604
-0.0302275
-0.00833958
0.00995297
0.0233858
0.0316117
0.0360586
0.0380356
0.0384013
0.0384008
0.0380341
0.0360562
0.0316086
0.0233823
0.0099491
-0.00834344
-0.0302311
-0.0537639
-0.0756324
-0.0926202
-0.102691
-0.10469
-0.0990886
-0.0871419
-0.0702108
-0.049705
-0.0268374
-0.00352012
0.016322
0.0287436
0.0315407
0.0254818
0.0149405
0.00585239
0.00195954
0.00164228
-3.35515e-05
-0.00579544
-0.0137657
-0.0198172
-0.0202286
-0.0156953
-0.0120995
-0.015521
-0.0256263
-0.0355703
-0.0394485
-0.0366013
-0.029903
-0.022238
-0.0155809
-0.0102043
-0.00435918
0.00329996
0.0109888
0.0145001
0.012231
0.00688973
0.0019884
0.000943451
0.00382639
0.00724848
0.00777955
0.00324746
-0.00416003
-0.0105498
-0.0151536
-0.019822
-0.0258259
-0.0323411
-0.0375154
-0.0388055
-0.033685
-0.0234254
-0.0146217
-0.0138857
-0.0202307
-0.0263183
-0.0257435
-0.0178726
-0.00695965
0.00165861
0.00498204
0.00560459
0.00933502
0.0186833
0.0302011
0.0376422
0.0357843
0.0232147
0.00225236
-0.0223613
-0.0457679
-0.0655526
-0.0808217
-0.090948
-0.0955663
-0.0941233
-0.0861832
-0.0725357
-0.0547638
-0.0355966
-0.0180805
-0.00408407
0.00526921
0.00981257
0.011187
0.0109555
0.0101711
0.0101706
0.0109542
0.0111849
0.00980987
0.00526602
-0.00408759
-0.0180841
-0.0356
-0.0547668
-0.0725382
-0.0861854
-0.0941254
-0.0955685
-0.0909503
-0.0808236
-0.0655536
-0.0457675
-0.0223596
0.00225481
0.0232171
0.035786
0.0376429
0.0302011
0.0186832
0.00933525
0.00560527
0.00498292
0.00165928
-0.00695937
-0.0178725
-0.025743
-0.026317
-0.0202286
-0.0138835
-0.0146206
-0.023426
-0.0336873
-0.0388089
-0.0375194
-0.0323453
-0.0258298
-0.0198249
-0.0151552
-0.0105503
-0.00415924
0.00324955
0.00778244
0.00725125
0.00382825
0.000944089
-0.00111216
-0.00219692
-0.00232703
-0.00454702
-0.0103448
-0.0170963
-0.0215578
-0.024166
-0.0272538
-0.0314834
-0.0354323
-0.0375772
-0.0361311
-0.0292718
-0.0187279
-0.0111294
-0.0122557
-0.0198188
-0.0257435
-0.0236959
-0.0135256
-0.000129331
0.0101564
0.013708
0.013311
0.0156064
0.0238499
0.0347822
0.0418456
0.0391488
0.0249653
0.00208074
-0.0238434
-0.0472723
-0.0656551
-0.0787804
-0.0870191
-0.0909092
-0.0903314
-0.0846535
-0.0741712
-0.0600689
-0.0446967
-0.0309087
-0.0205733
-0.0146898
-0.0132232
-0.0143932
-0.0164435
-0.0181484
-0.0181487
-0.0164444
-0.0143947
-0.0132252
-0.0146921
-0.0205759
-0.0309114
-0.0446994
-0.0600713
-0.0741731
-0.084655
-0.0903326
-0.0909104
-0.0870206
-0.0787822
-0.0656568
-0.0472731
-0.023843
0.00208244
0.0249677
0.0391508
0.0418466
0.0347819
0.0238489
0.0156056
0.0133109
0.0137087
0.0101573
-0.000128917
-0.0135257
-0.0236962
-0.025743
-0.0198172
-0.0122533
-0.0111272
-0.0187269
-0.0292724
-0.036133
-0.0375801
-0.035436
-0.0314871
-0.0272569
-0.0241683
-0.0215594
-0.017097
-0.0103445
-0.00454604
-0.00232605
-0.00219637
-0.00111202
-0.00454633
-0.0122662
-0.018263
-0.0248931
-0.0328477
-0.0392194
-0.0416161
-0.0416691
-0.0420681
-0.0428551
-0.0421927
-0.0392457
-0.0334128
-0.023841
-0.0124892
-0.00534725
-0.00688881
-0.0137669
-0.0178726
-0.0135256
-0.00121853
0.0137374
0.0244953
0.0273522
0.0254362
0.0258877
0.0323263
0.0415562
0.0469248
0.04229
0.0259595
0.00130062
-0.0253562
-0.048306
-0.0652196
-0.0766362
-0.0837368
-0.0875985
-0.088284
-0.0849106
-0.0773248
-0.0664176
-0.0541817
-0.043198
-0.0353399
-0.031557
-0.0317517
-0.0342476
-0.037257
-0.0394229
-0.0394231
-0.0372575
-0.0342485
-0.0317528
-0.0315582
-0.0353412
-0.0431992
-0.054183
-0.066419
-0.0773262
-0.0849118
-0.0882849
-0.0875992
-0.0837376
-0.0766373
-0.0652211
-0.0483074
-0.025357
0.00130113
0.0259613
0.0422922
0.0469265
0.0415565
0.0323252
0.0258862
0.0254352
0.0273522
0.0244962
0.0137383
-0.00121826
-0.0135257
-0.0178725
-0.0137657
-0.00688653
-0.00534454
-0.012487
-0.0238401
-0.0334132
-0.0392476
-0.0421958
-0.0428589
-0.0420719
-0.0416728
-0.0416194
-0.0392223
-0.03285
-0.0248948
-0.0182645
-0.0122675
-0.00454684
-0.00873823
-0.0245656
-0.0377091
-0.0496636
-0.0603312
-0.066718
-0.0673633
-0.0648963
-0.0621357
-0.0585555
-0.0522086
-0.0432704
-0.03254
-0.020136
-0.00790416
-0.00061904
-0.00122753
-0.00579622
-0.00695965
-0.000129331
0.0137374
0.029432
0.0401726
0.0424996
0.0396909
0.0388113
0.0434118
0.0503959
0.0534604
0.0467187
0.0286876
0.00309812
-0.0235781
-0.0459451
-0.0619994
-0.0727438
-0.0797166
-0.0841408
-0.0861688
-0.084774
-0.0794882
-0.071016
-0.0609706
-0.0515548
-0.0446524
-0.0412506
-0.0413369
-0.0435904
-0.046393
-0.0483768
-0.0483769
-0.0463933
-0.0435907
-0.0413371
-0.0412506
-0.0446523
-0.0515546
-0.0609706
-0.0710162
-0.0794888
-0.0847749
-0.0861697
-0.0841415
-0.079717
-0.0727443
-0.0620002
-0.0459462
-0.0235793
0.00309765
0.0286884
0.0467206
0.0534625
0.0503972
0.0434117
0.03881
0.0396894
0.042499
0.0401731
0.0294331
0.0137383
-0.000128915
-0.00695937
-0.00579545
-0.00122583
-0.000616516
-0.00790146
-0.0201338
-0.032539
-0.043271
-0.052211
-0.0585594
-0.0621406
-0.0649017
-0.067369
-0.0667237
-0.0603365
-0.0496683
-0.0377133
-0.0245687
-0.00873942
-0.012578
-0.035829
-0.0554491
-0.072059
-0.0849065
-0.0911413
-0.0902251
-0.0854849
-0.0796375
-0.0717384
-0.0601163
-0.0461353
-0.0318783
-0.0180948
-0.0060642
0.00103894
0.00174408
-3.42225e-05
0.00165861
0.0101564
0.0244953
0.0401726
0.0508844
0.0533535
0.0505148
0.0488033
0.0515041
0.0559338
0.0566432
0.0483269
0.0295835
0.00405612
-0.0221378
-0.0440546
-0.0598004
-0.0704569
-0.0776032
-0.082467
-0.0853438
-0.0851498
-0.0811264
-0.0738017
-0.064417
-0.0548559
-0.0471371
-0.0423763
-0.0407014
-0.0412695
-0.0427649
-0.0439458
-0.0439458
-0.0427647
-0.0412691
-0.0407007
-0.0423754
-0.047136
-0.0548547
-0.0644159
-0.0738009
-0.0811261
-0.0851499
-0.0853442
-0.0824676
-0.0776037
-0.0704572
-0.0598008
-0.0440551
-0.0221387
0.0040554
0.0295834
0.048328
0.0566451
0.0559357
0.0515051
0.0488031
0.0505137
0.0533524
0.050884
0.0401731
0.0244962
0.0101573
0.00165928
-3.35602e-05
0.00174522
0.0010409
-0.00606157
-0.018092
-0.031876
-0.0461344
-0.0601175
-0.0717419
-0.079643
-0.0854918
-0.090233
-0.0911496
-0.0849147
-0.0720665
-0.0554557
-0.0358337
-0.0125798
-0.0149881
-0.0428854
-0.066413
-0.0854558
-0.0988416
-0.10409
-0.101502
-0.0947502
-0.0862559
-0.0748736
-0.0595886
-0.0429499
-0.02792
-0.0153276
-0.00546454
0.00020743
0.00145272
0.0016415
0.00498204
0.013708
0.0273522
0.0424996
0.0533535
0.0564308
0.0538179
0.0510916
0.0514399
0.0530575
0.0516289
0.0423798
0.0236485
-0.00139576
-0.0271262
-0.0488017
-0.0643082
-0.0746126
-0.081344
-0.0858776
-0.0887586
-0.0888328
-0.0849347
-0.0773227
-0.0668996
-0.0554028
-0.0451667
-0.0375627
-0.0329261
-0.030926
-0.0305324
-0.0306132
-0.030613
-0.0305317
-0.0309249
-0.0329248
-0.0375612
-0.0451652
-0.0554013
-0.0668981
-0.0773213
-0.0849334
-0.0888319
-0.0887583
-0.0858779
-0.0813447
-0.0746132
-0.0643086
-0.0488019
-0.0271264
-0.00139601
0.0236483
0.0423801
0.0516299
0.053059
0.0514414
0.0510924
0.0538176
0.0564299
0.0533524
0.042499
0.0273522
0.0137087
0.00498291
0.00164227
0.00145355
0.00020875
-0.00546245
-0.0153247
-0.0279169
-0.0429475
-0.0595881
-0.0748758
-0.0862609
-0.0947577
-0.101511
-0.1041
-0.0988517
-0.0854653
-0.0664213
-0.0428913
-0.0149903
-0.0153773
-0.0440265
-0.0679749
-0.0866405
-0.0987145
-0.102242
-0.0981719
-0.0900833
-0.07988
-0.0663774
-0.0494623
-0.0326931
-0.0193832
-0.00994453
-0.00352494
-0.00011703
0.000882225
0.00195864
0.00560459
0.013311
0.0254362
0.0396909
0.0505148
0.0538179
0.0506347
0.0458455
0.0429221
0.0412762
0.037645
0.0274965
0.00867383
-0.016212
-0.0418543
-0.0634131
-0.0784004
-0.0877045
-0.0931788
-0.0965234
-0.0985417
-0.0979813
-0.0932437
-0.0842762
-0.071663
-0.0570839
-0.0432542
-0.0319156
-0.0237316
-0.0188961
-0.0165679
-0.0155856
-0.0155852
-0.016567
-0.0188947
-0.0237301
-0.031914
-0.0432527
-0.0570823
-0.0716613
-0.0842745
-0.093242
-0.0979799
-0.0985408
-0.0965232
-0.0931793
-0.0877053
-0.0784011
-0.0634134
-0.0418542
-0.0162117
0.00867403
0.0274966
0.0376452
0.0412768
0.0429232
0.0458467
0.0506354
0.0538176
0.0505137
0.0396894
0.0254352
0.0133109
0.00560526
0.00195953
0.00088303
-0.000116129
-0.00352355
-0.00994223
-0.0193799
-0.0326896
-0.0494599
-0.0663776
-0.0798835
-0.0900899
-0.0981809
-0.102253
-0.0987253
-0.0866507
-0.0679837
-0.0440326
-0.0153795
-0.0141071
-0.0403383
-0.0619641
-0.0782225
-0.0879267
-0.0897107
-0.0849006
-0.0765355
-0.0657625
-0.0514329
-0.0344075
-0.0189775
-0.00832803
-0.00218245
0.0012868
0.00304823
0.00408819
0.00585143
0.00933502
0.0156064
0.0258877
0.0388113
0.0488033
0.0510916
0.0458455
0.037552
0.0302281
0.0245402
0.0180273
0.00623306
-0.0134082
-0.0386788
-0.0644184
-0.0856861
-0.0997795
-0.107644
-0.111447
-0.113185
-0.113766
-0.111863
-0.105606
-0.0947232
-0.0795626
-0.0617638
-0.0443184
-0.0292805
-0.0176412
-0.0100785
-0.00592134
-0.00396075
-0.00396053
-0.0059207
-0.0100775
-0.0176399
-0.029279
-0.0443168
-0.0617621
-0.079561
-0.0947216
-0.105604
-0.111862
-0.113765
-0.113184
-0.111447
-0.107644
-0.0997805
-0.0856869
-0.0644186
-0.0386785
-0.0134076
0.00623349
0.0180273
0.0245401
0.0302285
0.0375529
0.0458467
0.0510924
0.0488031
0.03881
0.0258862
0.0156056
0.00933525
0.00585238
0.00408927
0.00304916
0.00128775
-0.00218089
-0.00832526
-0.0189737
-0.034404
-0.0514314
-0.0657641
-0.0765405
-0.0849086
-0.0897205
-0.087937
-0.0782323
-0.0619723
-0.040344
-0.0141091
-0.0122071
-0.0348385
-0.053199
-0.0665335
-0.0739442
-0.0746474
-0.0700961
-0.0624507
-0.0519401
-0.0375026
-0.0209388
-0.0070078
0.00154334
0.00571427
0.00794542
0.00964942
0.0118445
0.0149396
0.0186833
0.0238499
0.0323263
0.0434118
0.0515041
0.0514399
0.0429221
0.0302281
0.0178919
0.007621
-0.00243358
-0.0165531
-0.0374101
-0.0629621
-0.0882054
-0.108416
-0.121031
-0.127153
-0.12922
-0.129327
-0.128275
-0.12469
-0.116614
-0.1037
-0.0862198
-0.0658043
-0.0455544
-0.0276406
-0.0132018
-0.00325824
0.00263247
0.00556159
0.00556163
0.00263266
-0.00325774
-0.0132008
-0.0276392
-0.0455528
-0.0658027
-0.0862185
-0.103699
-0.116613
-0.124689
-0.128274
-0.129326
-0.12922
-0.127153
-0.121032
-0.108417
-0.0882063
-0.0629622
-0.0374095
-0.0165522
-0.00243308
0.0076209
0.0178917
0.0302285
0.0429232
0.0514414
0.0515051
0.0434117
0.0323252
0.0238489
0.0186832
0.0149405
0.011846
0.00965083
0.00794644
0.00571525
0.00154512
-0.00700487
-0.0209355
-0.0375005
-0.0519405
-0.0624543
-0.0701027
-0.0746561
-0.0739535
-0.066542
-0.0532059
-0.0348431
-0.0122088
-0.0103791
-0.0295936
-0.0450107
-0.055986
-0.0619855
-0.0627474
-0.059632
-0.0537006
-0.0441705
-0.0300894
-0.0141134
-0.00128499
0.00619206
0.00991579
0.0125808
0.0157169
0.0202007
0.0254809
0.0302011
0.0347822
0.0415562
0.0503959
0.0559338
0.0530575
0.0412762
0.0245402
0.007621
-0.00695688
-0.0203689
-0.0364258
-0.0576847
-0.0822807
-0.105627
-0.123615
-0.134039
-0.138055
-0.138225
-0.136625
-0.133906
-0.128714
-0.119065
-0.104545
-0.0853924
-0.0631992
-0.0410901
-0.0212723
-0.0048967
0.00683068
0.014125
0.0178736
0.0178737
0.0141252
0.00683104
-0.00489605
-0.0212713
-0.041089
-0.063198
-0.0853914
-0.104544
-0.119064
-0.128713
-0.133905
-0.136624
-0.138225
-0.138055
-0.134039
-0.123616