/*--------------------------------*- C++ -*----------------------------------*\
  =========                 |
  \\      /  F ield         | OpenFOAM: The Open Source CFD Toolbox
   \\    /   O peration     | Website:  https://openfoam.org
    \\  /    A nd           | Version:  10
     \\/     M anipulation  |
\*---------------------------------------------------------------------------*/
FoamFile
{
    format      ascii;
    class       volScalarField;
    location    "38";
    object      h;
}
// * * * * * * * * * * * * * * * * * * * * * * * * * * * * * * * * * * * * * //

dimensions      [0 1 0 0 0 0 0];

internalField   nonuniform List<scalar> 
10000
(
3.74031e-05
7.22659e-05
8.15814e-05
6.73344e-05
-4.76119e-05
-0.000159956
-8.24819e-05
-1.50662e-05
-6.37696e-05
2.74893e-05
9.84266e-06
-0.000166657
-0.00023458
-0.000429787
-0.000756722
-0.00115525
-0.00185534
-0.00283037
-0.00371327
-0.00448737
-0.00496613
-0.00461302
-0.00337986
-0.000989008
0.00216943
0.00540557
0.00799851
0.0091191
0.00852573
0.00645501
0.0043179
0.00285265
0.00227665
0.00184481
0.0005686
-0.00196495
-0.00501993
-0.00671806
-0.00580456
-0.00235713
0.00132256
0.00274996
0.00109066
-0.00157364
-0.00281536
-0.00201779
-0.000688029
-0.000178157
-0.000587277
-0.00110424
-0.00110428
-0.000587336
-0.000178188
-0.000688029
-0.00201782
-0.00281543
-0.00157369
0.0010907
0.00275004
0.00132255
-0.0023573
-0.00580481
-0.00671819
-0.00501988
-0.00196475
0.000568805
0.00184493
0.00227666
0.00285262
0.00431794
0.00645517
0.00852604
0.00911941
0.00799872
0.00540562
0.00216934
-0.000989221
-0.00338014
-0.00461327
-0.00496633
-0.00448747
-0.00371332
-0.00283038
-0.00185524
-0.00115514
-0.00075665
-0.000429726
-0.000234566
-0.000166666
9.89919e-06
2.75146e-05
-6.37808e-05
-1.50407e-05
-8.2529e-05
-0.000160062
-4.7648e-05
6.73834e-05
8.1658e-05
7.23197e-05
3.7422e-05
7.22659e-05
2.41175e-06
-8.32748e-05
5.12875e-05
1.0755e-05
-9.36465e-05
6.82895e-05
1.6397e-05
-0.000211561
-6.35924e-05
-0.000238231
-0.000648686
-0.000771121
-0.00143182
-0.00256565
-0.00380536
-0.00566524
-0.00819789
-0.0106196
-0.0128083
-0.0141043
-0.0130968
-0.00952322
-0.00272118
0.00628076
0.0155617
0.0229287
0.0260386
0.0241513
0.0182029
0.0119959
0.00774983
0.00612569
0.00499225
0.00139681
-0.00588349
-0.0144622
-0.0190416
-0.0160615
-0.00598393
0.00478537
0.00909924
0.00461282
-0.00291
-0.00647716
-0.00428858
-0.00051552
0.000979312
-0.000100746
-0.00151277
-0.00151288
-0.000100927
0.000979248
-0.000515432
-0.0042885
-0.00647719
-0.00290999
0.00461302
0.00909952
0.00478541
-0.00598427
-0.0160621
-0.0190419
-0.014462
-0.00588297
0.00139728
0.00499241
0.00612552
0.00774949
0.0119956
0.018203
0.0241519
0.0260392
0.0229291
0.0155617
0.00628052
-0.00272163
-0.00952376
-0.0130972
-0.0141045
-0.0128083
-0.0106195
-0.00819784
-0.00566506
-0.00380526
-0.00256563
-0.0014317
-0.000771049
-0.000648745
-0.000238172
-6.35484e-05
-0.000211634
1.64497e-05
6.83438e-05
-9.36993e-05
1.07667e-05
5.13185e-05
-8.333e-05
2.4246e-06
7.23213e-05
8.15814e-05
-8.32748e-05
-0.000211737
4.25166e-05
2.45379e-05
-4.00962e-05
0.000132134
-6.2045e-05
-0.000275822
-0.000124576
-0.000465025
-0.000963529
-0.00129229
-0.00245842
-0.00429926
-0.00647265
-0.00960488
-0.0136566
-0.0176729
-0.0212524
-0.0231605
-0.0214559
-0.0153589
-0.00425259
0.0103646
0.025541
0.0374717
0.0425415
0.0395207
0.0304315
0.0204768
0.0133357
0.0101979
0.00787226
0.00160203
-0.0104362
-0.0238348
-0.0306869
-0.0257637
-0.0103852
0.00617007
0.0130545
0.00678274
-0.00445761
-0.0100377
-0.00710357
-0.00156303
0.000780394
-0.000592606
-0.00252874
-0.00252893
-0.000592955
0.000780242
-0.00156288
-0.00710336
-0.0100377
-0.00445761
0.00678289
0.0130548
0.00617002
-0.0103857
-0.0257644
-0.0306872
-0.0238345
-0.0104355
0.00160268
0.00787247
0.0101977
0.0133352
0.0204765
0.0304317
0.0395214
0.0425424
0.0374723
0.0255411
0.0103642
-0.00425322
-0.0153597
-0.0214565
-0.0231609
-0.0212525
-0.0176728
-0.0136565
-0.00960467
-0.0064725
-0.00429921
-0.00245826
-0.00129212
-0.000963552
-0.000464992
-0.000124485
-0.000275911
-6.20542e-05
0.000132256
-4.00915e-05
2.45838e-05
4.25677e-05
-0.00021191
-8.33354e-05
8.1657e-05
6.73344e-05
5.12875e-05
4.25166e-05
0.000107047
-9.44237e-05
-0.000215171
-9.62391e-05
-0.00018704
-0.000234077
-0.00021949
-0.000628781
-0.00117567
-0.0019644
-0.00354677
-0.00580227
-0.00891387
-0.0134718
-0.019076
-0.0247259
-0.0296576
-0.0320775
-0.029711
-0.021072
-0.00592288
0.0139065
0.0346283
0.0508353
0.0578763
0.0542785
0.0431827
0.0302087
0.0202808
0.015138
0.0109442
0.00150733
-0.0150405
-0.0322032
-0.0404222
-0.033876
-0.0150826
0.00522319
0.0141091
0.00741162
-0.00586124
-0.0129899
-0.0102375
-0.0039709
-0.00103541
-0.00223156
-0.00420766
-0.00420792
-0.00223208
-0.00103567
-0.00397072
-0.0102372
-0.0129898
-0.00586132
0.00741157
0.0141091
0.00522302
-0.0150831
-0.0338766
-0.0404224
-0.0322028
-0.0150397
0.00150823
0.0109447
0.0151379
0.0202804
0.0302086
0.0431831
0.0542794
0.0578774
0.050836
0.0346285
0.013906
-0.00592379
-0.021073
-0.029712
-0.0320781
-0.0296579
-0.0247259
-0.0190759
-0.0134715
-0.00891349
-0.00580204
-0.00354663
-0.00196423
-0.0011756
-0.000628754
-0.000219374
-0.000234065
-0.000187083
-9.62354e-05
-0.000215295
-9.44862e-05
0.000107175
4.2569e-05
5.13192e-05
6.73846e-05
-4.76119e-05
1.0755e-05
2.45379e-05
-9.44237e-05
-4.95534e-05
6.74246e-06
-5.8398e-05
-0.00013756
-0.000231448
-0.000540139
-0.00100428
-0.00162482
-0.00283154
-0.00481175
-0.00770636
-0.0118688
-0.0175309
-0.0242014
-0.0311137
-0.0370465
-0.0396823
-0.0365285
-0.025597
-0.00709446
0.0169527
0.0420778
0.0615915
0.0701532
0.0664628
0.0543386
0.0392595
0.0269642
0.0195204
0.0128275
9.63552e-06
-0.020069
-0.039314
-0.0475047
-0.0394439
-0.0189444
0.00299814
0.0133605
0.00785632
-0.00524803
-0.0131205
-0.0113758
-0.00548508
-0.00224426
-0.00281547
-0.00436326
-0.00436354
-0.00281605
-0.00224455
-0.00548479
-0.0113753
-0.0131202
-0.00524812
0.00785609
0.0133604
0.00299801
-0.0189446
-0.0394441
-0.0475047
-0.0393137
-0.0200683
1.05504e-05
0.012828
0.0195202
0.0269637
0.0392592
0.0543388
0.0664634
0.0701541
0.0615922
0.0420779
0.0169521
-0.00709539
-0.025598
-0.0365294
-0.0396829
-0.0370467
-0.0311136
-0.0242012
-0.0175307
-0.0118685
-0.00770611
-0.00481162
-0.00283139
-0.00162471
-0.0010043
-0.000540113
-0.000231369
-0.000137552
-5.83524e-05
6.80733e-06
-4.96055e-05
-9.44852e-05
2.45839e-05
1.07696e-05
-4.76476e-05
-0.000159956
-9.36465e-05
-4.00962e-05
-0.000215171
6.74246e-06
6.63975e-05
-0.000200667
-0.000218847
-0.000319928
-0.0007537
-0.00115388
-0.00196878
-0.00361876
-0.00599855
-0.00965891
-0.0149399
-0.0217375
-0.0296678
-0.0379233
-0.0446539
-0.0472054
-0.0429384
-0.0296745
-0.00795188
0.0199264
0.0487391
0.0709737
0.0810859
0.0780658
0.0657748
0.0494406
0.0350537
0.0245394
0.0139039
-0.0030492
-0.0260468
-0.0462138
-0.0536925
-0.0447642
-0.0245319
-0.00338699
0.0074908
0.00438215
-0.00645202
-0.01416
-0.0140487
-0.0095615
-0.00637296
-0.00609619
-0.00693686
-0.00693713
-0.00609675
-0.00637324
-0.00956118
-0.0140481
-0.0141597
-0.00645232
0.00438155
0.00749033
-0.00338718
-0.0245319
-0.0447641
-0.0536924
-0.0462136
-0.0260463
-0.00304837
0.0139046
0.0245394
0.0350533
0.0494404
0.0657751
0.0780664
0.0810868
0.0709746
0.0487394
0.019926
-0.0079528
-0.0296756
-0.0429394
-0.0472062
-0.0446543
-0.0379233
-0.0296676
-0.0217373
-0.0149396
-0.00965858
-0.00599832
-0.00361858
-0.00196856
-0.00115381
-0.00075372
-0.000319852
-0.00021887
-0.000200709
6.65709e-05
6.80902e-06
-0.000215294
-4.00965e-05
-9.37013e-05
-0.000160063
-8.24819e-05
6.82895e-05
0.000132134
-9.62391e-05
-5.8398e-05
-0.000200667
-0.000443002
-0.000312795
-0.00048221
-0.00101445
-0.00146712
-0.00261741
-0.00467895
-0.00742707
-0.0117277
-0.0179037
-0.0257337
-0.034921
-0.0443201
-0.0515812
-0.0539668
-0.0486908
-0.0335736
-0.00923113
0.0215539
0.0528152
0.0769471
0.0887155
0.0872079
0.0757876
0.0595851
0.04404
0.0302331
0.0147123
-0.0064642
-0.0312594
-0.0510429
-0.0572065
-0.0479249
-0.0295276
-0.0112945
-0.000992765
-0.00100653
-0.00785873
-0.0144525
-0.0162323
-0.0139073
-0.0112116
-0.0102301
-0.0104022
-0.0104023
-0.0102304
-0.0112118
-0.013907
-0.0162317
-0.0144522
-0.0078592
-0.0010074
-0.000993376
-0.0112945
-0.0295271
-0.0479242
-0.0572061
-0.0510427
-0.0312591
-0.00646338
0.0147133
0.0302336
0.0440399
0.0595849
0.0757879
0.0872083
0.0887161
0.0769478
0.0528155
0.0215535
-0.0092321
-0.0335748
-0.0486919
-0.0539677
-0.0515817
-0.0443201
-0.0349207
-0.0257333
-0.0179033
-0.0117273
-0.0074268
-0.00467884
-0.00261721
-0.00146697
-0.00101445
-0.000482095
-0.000312739
-0.000443168
-0.000200712
-5.83535e-05
-9.62334e-05
0.000132257
6.83463e-05
-8.25272e-05
-1.50662e-05
1.6397e-05
-6.2045e-05
-0.00018704
-0.00013756
-0.000218847
-0.000312795
-0.000326379
-0.000763787
-0.00138141
-0.00206977
-0.00359964
-0.00594588
-0.00924333
-0.0144466
-0.0216049
-0.0303234
-0.0403726
-0.0504102
-0.0577314
-0.059555
-0.053075
-0.0363403
-0.00994488
0.0225719
0.054737
0.0796789
0.09274
0.0929178
0.0829019
0.067885
0.0518132
0.0343437
0.0132306
-0.0120071
-0.0374905
-0.05583
-0.0602115
-0.0508948
-0.0352882
-0.0213471
-0.0124577
-0.00903603
-0.0106331
-0.0149929
-0.0182425
-0.0182249
-0.0163657
-0.0150982
-0.0149201
-0.0149201
-0.0150982
-0.0163656
-0.0182245
-0.0182421
-0.0149928
-0.0106337
-0.009037
-0.0124583
-0.0213468
-0.0352872
-0.0508938
-0.060211
-0.0558298
-0.0374903
-0.0120066
0.0132314
0.0343444
0.0518131
0.0678845
0.0829017
0.0929179
0.0927404
0.0796794
0.0547374
0.0225719
-0.00994556
-0.0363413
-0.0530759
-0.0595557
-0.0577317
-0.0504103
-0.0403723
-0.0303231
-0.0216046
-0.0144462
-0.00924297
-0.00594573
-0.00359951
-0.0020696
-0.00138141
-0.000763741
-0.000326186
-0.000312737
-0.00021887
-0.000137552
-0.000187083
-6.2054e-05
1.64502e-05
-1.50404e-05
-6.37696e-05
-0.000211561
-0.000275822
-0.000234077
-0.000231448
-0.000319928
-0.00048221
-0.000763787
-0.00125374
-0.00179931
-0.00270542
-0.00455506
-0.00727752
-0.0113003
-0.0174437
-0.0256251
-0.0353843
-0.0464554
-0.0572127
-0.0644852
-0.0655027
-0.0576636
-0.0392755
-0.0110874
0.0224554
0.054733
0.0800957
0.0944258
0.0965454
0.0887397
0.0758477
0.059559
0.0379833
0.0108226
-0.0184663
-0.0443269
-0.0610389
-0.063945
-0.055366
-0.0436049
-0.0350333
-0.02852
-0.0221484
-0.0182609
-0.0195745
-0.0235064
-0.0255193
-0.0248549
-0.0239887
-0.0239975
-0.0239972
-0.0239882
-0.0248545
-0.0255191
-0.0235065
-0.0195749
-0.0182618
-0.0221494
-0.0285205
-0.0350327
-0.0436036
-0.0553648
-0.0639445
-0.0610387
-0.0443267
-0.0184659
0.0108234
0.0379842
0.0595593
0.0758473
0.0887393
0.0965455
0.0944263
0.0800963
0.0547336
0.0224557
-0.0110877
-0.0392764
-0.0576645
-0.0655035
-0.0644857
-0.0572129
-0.0464552
-0.035384
-0.0256248
-0.0174434
-0.0112998
-0.0072772
-0.00455487
-0.00270515
-0.00179919
-0.00125381
-0.000763742
-0.000482094
-0.000319851
-0.000231368
-0.000234066
-0.000275913
-0.000211637
-6.3782e-05
2.74893e-05
-6.35924e-05
-0.000124576
-0.00021949
-0.000540139
-0.0007537
-0.00101445
-0.00138141
-0.00179931
-0.0026
-0.0039865
-0.00616174
-0.00940837
-0.0141974
-0.0210388
-0.0300108
-0.0407336
-0.0526674
-0.0638443
-0.0708596
-0.0711064
-0.0622237
-0.0426667
-0.0137063
0.0195513
0.0509131
0.0759851
0.0911833
0.0954253
0.0909518
0.081177
0.065214
0.0400896
0.00778113
-0.0247385
-0.0505005
-0.0652065
-0.0667606
-0.0594383
-0.052085
-0.049068
-0.0454442
-0.0370245
-0.0282399
-0.025968
-0.0294817
-0.032883
-0.0336889
-0.0339376
-0.0346636
-0.0346631
-0.0339366
-0.0336881
-0.032883
-0.0294822
-0.0259689
-0.0282409
-0.0370253
-0.0454443
-0.049067
-0.0520832
-0.0594369
-0.06676
-0.0652062
-0.0505001
-0.024738
0.00778184
0.0400905
0.0652145
0.0811766
0.0909509
0.095425
0.0911836
0.0759856
0.0509135
0.0195517
-0.0137064
-0.0426675
-0.0622246
-0.0711071
-0.07086
-0.0638446
-0.0526672
-0.0407331
-0.0300103
-0.0210384
-0.014197
-0.00940801
-0.00616156
-0.00398628
-0.00259974
-0.00179919
-0.00138141
-0.00101445
-0.000753721
-0.000540114
-0.000219374
-0.000124483
-6.35461e-05
2.75154e-05
9.84266e-06
-0.000238231
-0.000465025
-0.000628781
-0.00100428
-0.00115388
-0.00146712
-0.00206977
-0.00270542
-0.0039865
-0.00590082
-0.00840515
-0.0123816
-0.0181764
-0.0258871
-0.0359194
-0.0477373
-0.0601499
-0.0711499
-0.0775656
-0.0767502
-0.0665039
-0.0458186
-0.0168673
0.0150827
0.0447399
0.0685088
0.0835992
0.08972
0.0889315
0.0821987
0.0663366
0.0383288
0.00202944
-0.0330596
-0.0585993
-0.0711541
-0.0715849
-0.0661098
-0.0632786
-0.0651608
-0.0642636
-0.0547959
-0.0421176
-0.0358885
-0.0376308
-0.0414688
-0.0437256
-0.045456
-0.0471195
-0.0471189
-0.0454547
-0.0437247
-0.0414689
-0.0376319
-0.0358898
-0.0421185
-0.0547962
-0.0642633
-0.0651595
-0.0632767
-0.0661083
-0.0715844
-0.0711539
-0.058599
-0.0330592
0.00202981
0.0383293
0.0663369
0.0821982
0.0889303
0.0897192
0.0835993
0.0685093
0.0447404
0.0150833
-0.0168669
-0.0458189
-0.0665046
-0.0767507
-0.0775658
-0.0711501
-0.0601499
-0.0477369
-0.0359189
-0.0258867
-0.018176
-0.0123811
-0.00840485
-0.0059007
-0.00398629
-0.00270515
-0.0020696
-0.00146697
-0.00115381
-0.0010043
-0.000628755
-0.000464993
-0.000238171
9.89835e-06
-0.000166657
-0.000648686
-0.000963529
-0.00117567
-0.00162482
-0.00196878
-0.00261741
-0.00359964
-0.00455506
-0.00616174
-0.00840515
-0.0113726
-0.016292
-0.0231424
-0.031801
-0.0431143
-0.0561752
-0.0690907
-0.0800675
-0.0861689
-0.084246
-0.0723982
-0.0508281
-0.0224058
0.00802357
0.0359368
0.0580205
0.0728042
0.0813168
0.0846075
0.0806942
0.0649484
0.0352232
-0.00371208
-0.0408799
-0.0663462
-0.077122
-0.0773192
-0.0749138
-0.0768933
-0.0829576
-0.0846223
-0.0755245
-0.0606026
-0.0507081
-0.0497905
-0.0533451
-0.0569071
-0.0600518
-0.0624559
-0.0624554
-0.0600506
-0.0569064
-0.0533455
-0.0497921
-0.0507098
-0.0606035
-0.0755244
-0.0846215
-0.0829561
-0.0768916
-0.0749124
-0.0773186
-0.077122
-0.0663459
-0.0408795
-0.00371182
0.0352234
0.0649485
0.0806938
0.0846064
0.0813158
0.0728042
0.0580213
0.0359377
0.00802423
-0.0224054
-0.0508282
-0.0723989
-0.0842468
-0.0861694
-0.0800677
-0.0690908
-0.056175
-0.0431137
-0.0318004
-0.0231419
-0.0162915
-0.011372
-0.00840485
-0.00616156
-0.00455487
-0.00359951
-0.00261721
-0.00196856
-0.0016247
-0.00117561
-0.000963556
-0.000648746
-0.000166668
-0.00023458
-0.000771121
-0.00129229
-0.0019644
-0.00283154
-0.00361876
-0.00467895
-0.00594588
-0.00727752
-0.00940837
-0.0123816
-0.016292
-0.0221869
-0.0299729
-0.0396356
-0.0520452
-0.0659345
-0.0791231
-0.0899908
-0.0955885
-0.0923746
-0.0791908
-0.0576275
-0.0305491
-0.00215725
0.0232545
0.0428886
0.0572165
0.0684386
0.0756866
0.0743738
0.0595257
0.0299632
-0.00956234
-0.0473949
-0.0719207
-0.0807407
-0.0812747
-0.0826323
-0.0890174
-0.0979149
-0.101458
-0.0936903
-0.0780585
-0.0650855
-0.0610919
-0.0638021
-0.0682006
-0.0720583
-0.0745166
-0.0745162
-0.0720575
-0.0682003
-0.0638029
-0.0610936
-0.0650871
-0.0780591
-0.0936897
-0.101456
-0.0979134
-0.0890157
-0.0826308
-0.0812738
-0.0807405
-0.0719207
-0.0473947
-0.0095622
0.0299629
0.0595253
0.0743732
0.0756857
0.0684374
0.057216
0.0428892
0.0232555
-0.00215661
-0.0305488
-0.0576274
-0.0791911
-0.0923753
-0.0955891
-0.0899909
-0.0791229
-0.0659343
-0.0520446
-0.0396348
-0.0299724
-0.0221864
-0.0162915
-0.0123811
-0.00940802
-0.0072772
-0.00594574
-0.00467884
-0.00361858
-0.00283139
-0.00196423
-0.00129212
-0.000771047
-0.000234566
-0.000429787
-0.00143182
-0.00245842
-0.00354677
-0.00481175
-0.00599855
-0.00742707
-0.00924333
-0.0113003
-0.0141974
-0.0181764
-0.0231424
-0.0299729
-0.0390172
-0.0501369
-0.0636403
-0.078209
-0.0916058
-0.101918
-0.106204
-0.101221
-0.0867144
-0.065186
-0.0393062
-0.0131154
0.00914679
0.0260002
0.0399608
0.0534816
0.0636236
0.0643099
0.0508703
0.0226319
-0.0159889
-0.0529487
-0.0755683
-0.0826128
-0.0843552
-0.0899632
-0.100123
-0.110481
-0.115015
-0.108976
-0.0938425
-0.078683
-0.0717468
-0.0731894
-0.0775678
-0.080887
-0.0823667
-0.0823666
-0.080887
-0.0775681
-0.0731904
-0.0717483
-0.0786842
-0.0938426
-0.108975
-0.115013
-0.11048
-0.100121
-0.089962
-0.0843542
-0.0826125
-0.0755687
-0.0529491
-0.0159892
0.0226312
0.050869
0.0643087
0.0636227
0.0534805
0.0399599
0.0260004
0.0091479
-0.0131145
-0.0393058
-0.0651859
-0.0867144
-0.101222
-0.106205
-0.101918
-0.0916057
-0.0782088
-0.06364
-0.0501362
-0.0390166
-0.0299724
-0.0231419
-0.018176
-0.014197
-0.0112998
-0.00924297
-0.0074268
-0.00599833
-0.00481163
-0.00354663
-0.00245826
-0.0014317
-0.000429726
-0.000756722
-0.00256565
-0.00429926
-0.00580227
-0.00770636
-0.00965891
-0.0117277
-0.0144466
-0.0174437
-0.0210388
-0.0258871
-0.031801
-0.0396356
-0.0501369
-0.0626751
-0.0770533
-0.0923719
-0.106116
-0.115617
-0.118338
-0.11172
-0.0959397
-0.0739333
-0.0487435
-0.0246608
-0.00522926
0.00985097
0.0243287
0.0398774
0.0523131
0.0551299
0.0437442
0.0176127
-0.0186945
-0.0528777
-0.0727316
-0.0787238
-0.0828872
-0.093202
-0.106829
-0.117963
-0.122946
-0.118853
-0.105429
-0.0896121
-0.0806309
-0.0806792
-0.0840618
-0.0854958
-0.0849985
-0.0849988
-0.0854967
-0.084063
-0.0806806
-0.0806321
-0.0896127
-0.105428
-0.118851
-0.122944
-0.117961
-0.106829
-0.093201
-0.0828861
-0.0787234
-0.0727323
-0.052879
-0.0186955
0.0176117
0.0437427
0.0551283
0.0523122
0.0398767
0.024328
0.00985084
-0.00522834
-0.0246596
-0.048743
-0.0739334
-0.0959401
-0.11172
-0.118339
-0.115617
-0.106116
-0.0923718
-0.077053
-0.0626746
-0.0501362
-0.0396348
-0.0318004
-0.0258867
-0.0210384
-0.0174434
-0.0144462
-0.0117273
-0.00965858
-0.00770611
-0.00580204
-0.00429922
-0.00256563
-0.000756651
-0.00115525
-0.00380536
-0.00647265
-0.00891387
-0.0118688
-0.0149399
-0.0179037
-0.0216049
-0.0256251
-0.0300108
-0.0359194
-0.0431143
-0.0520452
-0.0636403
-0.0770533
-0.0917833
-0.107281
-0.120601
-0.128527
-0.129327
-0.121003
-0.103818
-0.0812183
-0.0571126
-0.0356451
-0.0187531
-0.00468517
0.01045
0.0274003
0.0419269
0.0474097
0.0387099
0.015658
-0.016088
-0.0446468
-0.0602896
-0.0654021
-0.072236
-0.0867367
-0.103149
-0.114421
-0.119098
-0.116587
-0.105735
-0.0909284
-0.0810234
-0.0795068
-0.0808572
-0.0792993
-0.0761698
-0.0761705
-0.079301
-0.0808593
-0.0795084
-0.0810241
-0.0909281
-0.105734
-0.116585
-0.119097
-0.114419
-0.103149
-0.0867358
-0.0722347
-0.0654013
-0.0602904
-0.0446487
-0.0160898
0.0156568
0.0387084
0.047408
0.0419256
0.0273996
0.0104493
-0.00468568
-0.0187529
-0.0356443
-0.0571121
-0.0812185
-0.103818
-0.121003
-0.129328
-0.128528
-0.120602
-0.107281
-0.091783
-0.077053
-0.06364
-0.0520446
-0.0431137
-0.0359189
-0.0300103
-0.0256248
-0.0216046
-0.0179033
-0.0149396
-0.0118685
-0.00891349
-0.0064725
-0.00380526
-0.00115514
-0.00185534
-0.00566524
-0.00960488
-0.0134718
-0.0175309
-0.0217375
-0.0257337
-0.0303234
-0.0353843
-0.0407336
-0.0477373
-0.0561752
-0.0659345
-0.078209
-0.0923719
-0.107281
-0.122288
-0.134335
-0.13995
-0.138016
-0.127032
-0.107601
-0.083888
-0.0606184
-0.0412023
-0.0258384
-0.0121866
0.00325688
0.0208995
0.0370631
0.0446742
0.0379467
0.0180493
-0.00759354
-0.0287292
-0.0397077
-0.0445278
-0.0541761
-0.0723401
-0.0911935
-0.102441
-0.106287
-0.104941
-0.0973856
-0.0851557
-0.0753089
-0.0719284
-0.0703881
-0.0653105
-0.0594558
-0.0594566
-0.0653127
-0.0703906
-0.0719301
-0.075309
-0.0851545
-0.0973836
-0.104939
-0.106286
-0.10244
-0.0911928
-0.0723393
-0.0541751
-0.0445272
-0.0397087
-0.0287318
-0.00759631
0.0180473
0.0379453
0.0446727
0.0370616
0.0208986
0.00325646
-0.012187
-0.0258385
-0.0412019
-0.0606178
-0.083888
-0.107602
-0.127033
-0.138017
-0.139951
-0.134336
-0.122288
-0.107281
-0.0923718
-0.0782088
-0.0659343
-0.056175
-0.0477369
-0.0407331
-0.035384
-0.0303231
-0.0257333
-0.0217372
-0.0175307
-0.0134715
-0.00960467
-0.00566506
-0.00185524
-0.00283037
-0.00819789
-0.0136566
-0.019076
-0.0242014
-0.0296678
-0.034921
-0.0403726
-0.0464554
-0.0526674
-0.0601499
-0.0690907
-0.0791231
-0.0916058
-0.106116
-0.120601
-0.134335
-0.14457
-0.147487
-0.142173
-0.127919
-0.105942
-0.080833
-0.0578206
-0.0393887
-0.0245047
-0.0107625
0.0050914
0.023499
0.0410381
0.0498313
0.0442949
0.0278344
0.00949493
-0.00335206
-0.009768
-0.0147921
-0.0272435
-0.0487133
-0.0700468
-0.0816461
-0.0848268
-0.0848012
-0.0814451
-0.0732052
-0.0642785
-0.0589455
-0.0542965
-0.0460476
-0.0380285
-0.0380293
-0.0460498
-0.054299
-0.0589471
-0.0642783
-0.0732033
-0.0814425
-0.0847987
-0.084825
-0.0816449
-0.070046
-0.0487126
-0.0272427
-0.0147917
-0.00976905
-0.0033547
0.00949162
0.0278319
0.0442937
0.0498305
0.0410372
0.0234982
0.00509115
-0.0107625
-0.0245047
-0.0393886
-0.0578203
-0.080833
-0.105943
-0.12792
-0.142174
-0.147488
-0.144572
-0.134336
-0.120602
-0.106116
-0.0916057
-0.0791229
-0.0690907
-0.0601499
-0.0526672
-0.0464552
-0.0403723
-0.0349207
-0.0296676
-0.0242012
-0.0190759
-0.0136565
-0.00819784
-0.00283037
-0.00371327
-0.0106196
-0.0176729
-0.0247259
-0.0311137
-0.0379233
-0.0443201
-0.0504102
-0.0572127
-0.0638443
-0.0711499
-0.0800675
-0.0899908
-0.101918
-0.115617
-0.128527
-0.13995
-0.147487
-0.147054
-0.1379
-0.120356
-0.0962044
-0.0700457
-0.047401
-0.0298537
-0.0155252
-0.00184416
0.0144397
0.0335688
0.0516949
0.0604597
0.0557668
0.0433883
0.0331383
0.028843
0.0270453
0.0219873
0.00726598
-0.0168398
-0.0403773
-0.0527071
-0.0558594
-0.0576929
-0.059156
-0.0556489
-0.0481624
-0.041081
-0.033796
-0.0234319
-0.0142463
-0.0142471
-0.0234338
-0.0337979
-0.0410819
-0.0481617
-0.0556467
-0.059153
-0.05769
-0.0558572
-0.0527056
-0.0403763
-0.0168389
0.00726661
0.0219873
0.0270443
0.0288406
0.0331352
0.0433856
0.0557657
0.0604598
0.0516948
0.0335682
0.0144393
-0.00184405
-0.015525
-0.0298537
-0.0474009
-0.0700458
-0.0962052
-0.120357
-0.137902
-0.147055
-0.147488
-0.139951
-0.128528
-0.115617
-0.101918
-0.0899909
-0.0800677
-0.0711501
-0.0638445
-0.0572129
-0.0504103
-0.0443201
-0.0379233
-0.0311136
-0.0247259
-0.0176728
-0.0106195
-0.00371332
-0.00448737
-0.0128083
-0.0212524
-0.0296576
-0.0370465
-0.0446539
-0.0515812
-0.0577314
-0.0644852
-0.0708596
-0.0775656
-0.0861689
-0.0955885
-0.106204
-0.118338
-0.129327
-0.138016
-0.142173
-0.1379
-0.124534
-0.103418
-0.0770293
-0.0499076
-0.0276922
-0.01116
0.00214685
0.0152282
0.0312968
0.0498704
0.0663515
0.0729268
0.0680049
0.0591374
0.0560141
0.0591506
0.0614842
0.0564454
0.0399472
0.0140461
-0.0110464
-0.0244533
-0.0285415
-0.032786
-0.0389166
-0.0399215
-0.0340112
-0.0256825
-0.0166978
-0.00555606
0.00371258
0.00371204
-0.00555724
-0.0166987
-0.0256824
-0.0340099
-0.0399193
-0.0389137
-0.0327829
-0.0285389
-0.0244516
-0.0110453
0.0140467
0.0399473
0.0564447
0.0614827
0.0591484
0.0560113
0.0591348
0.0680038
0.0729274
0.0663524
0.0498705
0.0312967
0.0152284
0.00214739
-0.0111595
-0.0276918
-0.0499074
-0.0770296
-0.103419
-0.124535
-0.137902
-0.142174
-0.138017
-0.129328
-0.118339
-0.106205
-0.0955891
-0.0861694
-0.0775658
-0.07086
-0.0644857
-0.0577317
-0.0515817
-0.0446543
-0.0370467
-0.0296579
-0.0212525
-0.0128083
-0.00448747
-0.00496613
-0.0141043
-0.0231605
-0.0320775
-0.0396823
-0.0472054
-0.0539668
-0.059555
-0.0655027
-0.0711064
-0.0767502
-0.084246
-0.0923746
-0.101221
-0.11172
-0.121003
-0.127032
-0.127919
-0.120356
-0.103418
-0.0794246
-0.0517415
-0.0246033
-0.00335612
0.0117872
0.0236374
0.0358928
0.0513692
0.0683296
0.0815152
0.0847292
0.0791431
0.073138
0.0757522
0.0849538
0.0908726
0.0858569
0.0680511
0.0412619
0.0152289
-1.1029e-05
-0.00653642
-0.0138786
-0.0241736
-0.0292483
-0.0254025
-0.0170207
-0.0077582
0.00271404
0.0110434
0.0110432
0.00271368
-0.00775784
-0.0170193
-0.0254004
-0.0292461
-0.0241712
-0.0138759
-0.00653373
-9.01166e-06
0.01523
0.0412621
0.0680505
0.0858554
0.0908707
0.0849517
0.07575
0.0731359
0.0791422
0.08473
0.0815168
0.0683307
0.0513696
0.0358932
0.0236383
0.0117881
-0.00335535
-0.0246027
-0.0517414
-0.0794251
-0.103419
-0.120357
-0.12792
-0.127033
-0.121003
-0.11172
-0.101222
-0.0923753
-0.0842468
-0.0767507
-0.071107
-0.0655034
-0.0595556
-0.0539676
-0.0472062
-0.0396829
-0.0320781
-0.0231609
-0.0141045
-0.00496633
-0.00461302
-0.0130968
-0.0214559
-0.029711
-0.0365285
-0.0429384
-0.0486908
-0.053075
-0.0576636
-0.0622237
-0.0665039
-0.0723982
-0.0791908
-0.0867144
-0.0959397
-0.103818
-0.107601
-0.105942
-0.0962044
-0.0770293
-0.0517415
-0.0244302
0.00131873
0.0206017
0.0334106
0.043031
0.0540784
0.0683467
0.0825775
0.0913163
0.0907333
0.0843621
0.0806154
0.0877349
0.101958
0.111258
0.106767
0.0888034
0.0626731
0.0367821
0.0194107
0.00962709
-0.00065457
-0.0139108
-0.0223722
-0.0212196
-0.0141371
-0.00591177
0.00273328
0.00932982
0.0093299
0.00273384
-0.00591013
-0.0141344
-0.0212166
-0.0223698
-0.0139089
-0.000652566
0.00962943
0.0194128
0.036783
0.0626728
0.0888019
0.106765
0.111256
0.101956
0.0877334
0.0806142
0.0843616
0.0907341
0.0913182
0.0825793
0.0683476
0.0540788
0.0430318
0.0334118
0.0206028
0.00131953
-0.0244298
-0.0517414
-0.0770296
-0.0962052
-0.105943
-0.107602
-0.103818
-0.09594
-0.0867144
-0.0791911
-0.0723989
-0.0665045
-0.0622245
-0.0576644
-0.0530758
-0.0486919
-0.0429394
-0.0365294
-0.0297119
-0.0214565
-0.0130972
-0.00461326
-0.00337986
-0.00952322
-0.0153589
-0.021072
-0.025597
-0.0296745
-0.0335736
-0.0363403
-0.0392755
-0.0426667
-0.0458186
-0.0508281
-0.0576275
-0.065186
-0.0739333
-0.0812183
-0.083888
-0.080833
-0.0700457
-0.0499076
-0.0246033
0.00131873
0.0246917
0.0409478
0.0503919
0.0571936
0.0665971
0.0786773
0.088974
0.0925449
0.0881152
0.0808289
0.0787713
0.0894344
0.107946
0.120685
0.117691
0.101224
0.0776055
0.0532837
0.0343497
0.0217179
0.0095809
-0.00516783
-0.0164548
-0.0186522
-0.0139681
-0.00768649
-0.00168847
0.00254912
0.00254962
-0.00168686
-0.00768363
-0.0139643
-0.0186485
-0.016452
-0.00516618
0.00958218
0.0217194
0.0343511
0.0532843
0.0776047
0.101222
0.117688
0.120682
0.107944
0.089433
0.0787705
0.0808287
0.0881157
0.0925463
0.0889758
0.0786786
0.0665975
0.057194
0.0503931
0.0409494
0.024693
0.00131953
-0.0246027
-0.0499074
-0.0700458
-0.080833
-0.083888
-0.0812185
-0.0739334
-0.0651859
-0.0576274
-0.0508281
-0.0458189
-0.0426675
-0.0392764
-0.0363413
-0.0335747
-0.0296755
-0.025598
-0.021073
-0.0153597
-0.00952375
-0.00338015
-0.000989008
-0.00272118
-0.00425259
-0.00592288
-0.00709446
-0.00795188
-0.00923113
-0.00994488
-0.0110874
-0.0137063
-0.0168673
-0.0224058
-0.0305491
-0.0393062
-0.0487435
-0.0571126
-0.0606184
-0.0578206
-0.047401
-0.0276922
-0.00335612
0.0206017
0.0409478
0.053853
0.0604155
0.0654717
0.0739004
0.0838361
0.0904601
0.0896896
0.0822582
0.0742207
0.0735061
0.0869291
0.108883
0.124687
0.123615
0.109479
0.0892506
0.0674022
0.0477964
0.0332226
0.0201138
0.00445317
-0.00987899
-0.0162605
-0.0148411
-0.0111915
-0.00861891
-0.00740626
-0.00740527
-0.00861618
-0.0111875
-0.0148367
-0.0162562
-0.00987572
0.00445504
0.0201146
0.0332229
0.0477965
0.0674018
0.0892492
0.109476
0.123611
0.124684
0.10888
0.0869277
0.0735058
0.0742211
0.0822587
0.0896904
0.0904615
0.0838376
0.0739011
0.0654718
0.0604161
0.0538544
0.0409494
0.0206028
-0.00335538
-0.0276918
-0.0474009
-0.0578203
-0.0606179
-0.0571121
-0.048743
-0.0393058
-0.0305488
-0.0224053
-0.0168669
-0.0137064
-0.0110877
-0.00994554
-0.00923208
-0.00795278
-0.00709537
-0.00592377
-0.00425322
-0.00272162
-0.000989227
0.00216943
0.00628076
0.0103646
0.0139065
0.0169527
0.0199264
0.0215539
0.0225719
0.0224554
0.0195513
0.0150827
0.00802357
-0.00215725
-0.0131154
-0.0246608
-0.0356451
-0.0412023
-0.0393887
-0.0298537
-0.01116
0.0117872
0.0334106
0.0503919
0.0604155
0.0652948
0.069612
0.0772844
0.0853139
0.0892848
0.0855318
0.0759912
0.0674859
0.0683124
0.0844214
0.109471
0.128131
0.129295
0.117977
0.101838
0.0838125
0.0654083
0.050424
0.0369646
0.0203036
0.002511
-0.00847616
-0.0106745
-0.010122
-0.0117468
-0.014253
-0.0142515
-0.0117429
-0.0101171
-0.0106696
-0.00847175
0.00251466
0.0203061
0.0369656
0.0504235
0.0654069
0.0838108
0.101836
0.117974
0.129292
0.128128
0.109469
0.0844199
0.0683122
0.0674868
0.0759922
0.0855324
0.0892854
0.0853149
0.0772853
0.0696123
0.0652949
0.0604161
0.0503931
0.0334119
0.0117881
-0.0111596
-0.0298537
-0.0393886
-0.0412019
-0.0356443
-0.0246597
-0.0131145
-0.00215661
0.00802423
0.0150833
0.0195517
0.0224557
0.0225719
0.0215535
0.019926
0.0169521
0.013906
0.0103642
0.00628052
0.00216933
0.00540557
0.0155617
0.025541
0.0346283
0.0420778
0.0487391
0.0528152
0.054737
0.054733
0.0509131
0.0447399
0.0359368
0.0232545
0.00914679
-0.00522926
-0.0187531
-0.0258384
-0.0245047
-0.0155252
0.00214685
0.0236374
0.043031
0.0571936
0.0654717
0.069612
0.0734298
0.0803341
0.0871686
0.0896551
0.0836649
0.0720971
0.0630526
0.0655838
0.0841409
0.111377
0.131682
0.134207
0.125157
0.113265
0.100325
0.0849508
0.0705757
0.0565196
0.0381741
0.0166031
0.00102857
-0.00489307
-0.00791326
-0.014484
-0.0212979
-0.021296
-0.0144793
-0.00790762
-0.00488795
0.00103287
0.0166068
0.0381771
0.056521
0.070575
0.0849482
0.100322
0.113262
0.125155
0.134205
0.131681
0.111375
0.0841396
0.0655835
0.0630536
0.0720987
0.083666
0.0896554
0.0871687
0.0803345
0.0734302
0.0696123
0.0654718
0.057194
0.0430318
0.0236383
0.00214739
-0.015525
-0.0245047
-0.0258385
-0.0187529
-0.00522836
0.00914789
0.0232555
0.0359376
0.0447404
0.0509135
0.0547335
0.0547374
0.0528155
0.0487394
0.0420779
0.0346284
0.0255411
0.0155617
0.0054056
0.00799851
0.0229287
0.0374717
0.0508353
0.0615915
0.0709737
0.0769471
0.0796789
0.0800957
0.0759851
0.0685088
0.0580205
0.0428886
0.0260002
0.00985097
-0.00468517
-0.0121866
-0.0107625
-0.00184416
0.0152282
0.0358928
0.0540784
0.0665971
0.0739004
0.0772844
0.0803341
0.0865677
0.092633
0.0934265
0.0841995
0.0694975
0.0592871
0.0631046
0.0829624
0.110261
0.129701
0.131682
0.123849
0.116227
0.109333
0.0981444
0.0845915
0.0693011
0.048846
0.0238407
0.00417319
-0.00548454
-0.0125067
-0.0244191
-0.0357125
-0.0357106
-0.0244142
-0.0125008
-0.00547932
0.00417724
0.023844
0.0488488
0.0693027
0.0845909
0.0981413
0.109329
0.116223
0.123847
0.131681
0.129701
0.110261
0.0829618
0.0631041
0.0592878
0.0694993
0.0842014
0.0934276
0.092633
0.0865676
0.0803345
0.0772853
0.0739012
0.0665976
0.0540789
0.0358932
0.0152285
-0.00184405
-0.0107625
-0.012187
-0.00468569
0.00985082
0.0260004
0.0428892
0.0580213
0.0685093
0.0759855
0.0800962
0.0796793
0.0769477
0.0709746
0.0615922
0.050836
0.0374722
0.0229291
0.00799871