/*--------------------------------*- C++ -*----------------------------------*\
  =========                 |
  \\      /  F ield         | OpenFOAM: The Open Source CFD Toolbox
   \\    /   O peration     | Website:  https://openfoam.org
    \\  /    A nd           | Version:  10
     \\/     M anipulation  |
\*---------------------------------------------------------------------------*/
FoamFile
{
    format      ascii;
    class       volScalarField;
    location    "38";
    object      h_0;
}
// * * * * * * * * * * * * * * * * * * * * * * * * * * * * * * * * * * * * * //

dimensions      [0 1 0 0 0 0 0];

internalField   nonuniform List<scalar> 
10000
(
4.41463e-05
7.87422e-05
8.60224e-05
7.15553e-05
-5.45525e-05
-0.000163707
-8.07777e-05
-1.78544e-05
-6.18734e-05
3.0306e-05
7.10892e-06
-0.000167398
-0.000232565
-0.000425915
-0.000745524
-0.00114046
-0.0018401
-0.00281014
-0.00369353
-0.00447401
-0.00496663
-0.00463211
-0.00342014
-0.00104933
0.00210065
0.00533978
0.00795968
0.00911432
0.00855199
0.00650041
0.0043622
0.00288239
0.00229071
0.00186905
0.000618136
-0.00189177
-0.0049582
-0.00670167
-0.00584207
-0.00241566
0.0012864
0.00275728
0.00113191
-0.00152753
-0.00279132
-0.002027
-0.000715749
-0.00019858
-0.000582752
-0.00107948
-0.00107952
-0.000582812
-0.000198612
-0.000715748
-0.00202703
-0.00279139
-0.00152758
0.00113195
0.00275736
0.00128638
-0.00241583
-0.00584232
-0.0067018
-0.00495815
-0.00189156
0.000618343
0.00186917
0.00229073
0.00288237
0.00436223
0.00650056
0.00855231
0.00911463
0.00795989
0.00533982
0.00210055
-0.00104955
-0.00342043
-0.00463235
-0.00496683
-0.00447411
-0.00369358
-0.00281014
-0.00183999
-0.00114034
-0.000745451
-0.000425856
-0.000232553
-0.000167409
7.1634e-06
3.03333e-05
-6.18836e-05
-1.78304e-05
-8.08228e-05
-0.000163816
-5.45943e-05
7.16071e-05
8.61023e-05
7.88015e-05
4.41707e-05
7.87422e-05
-2.78666e-06
-8.9744e-05
5.88267e-05
5.36627e-06
-9.17272e-05
7.58915e-05
9.70591e-06
-0.000208622
-5.81481e-05
-0.000241177
-0.000640712
-0.000758225
-0.00142306
-0.00254391
-0.0037735
-0.00563066
-0.00815204
-0.0105745
-0.0127759
-0.0141018
-0.013139
-0.00962052
-0.00287129
0.00610673
0.0153974
0.0228356
0.0260363
0.0242311
0.0183274
0.0121065
0.00780796
0.00613541
0.00502483
0.00149809
-0.0057181
-0.0143281
-0.0190367
-0.0162097
-0.00618883
0.00465042
0.00909546
0.00471054
-0.0027931
-0.00641826
-0.00431962
-0.000597766
0.000918876
-8.88609e-05
-0.00144145
-0.00144155
-8.9045e-05
0.00091881
-0.000597677
-0.00431955
-0.00641829
-0.00279309
0.00471073
0.00909574
0.00465045
-0.00618917
-0.0162103
-0.019037
-0.0143279
-0.00571757
0.00149855
0.00502499
0.00613523
0.00780762
0.0121063
0.0183275
0.0242316
0.0260369
0.022836
0.0153974
0.00610648
-0.00287173
-0.00962106
-0.0131393
-0.0141021
-0.0127759
-0.0105744
-0.00815199
-0.00563048
-0.0037734
-0.00254389
-0.00142295
-0.000758151
-0.000640771
-0.000241121
-5.81013e-05
-0.000208694
9.75358e-06
7.59513e-05
-9.17792e-05
5.37422e-06
5.88635e-05
-8.98047e-05
-2.77771e-06
7.88029e-05
8.60224e-05
-8.9744e-05
-0.000218351
4.96391e-05
2.16714e-05
-3.79057e-05
0.00013716
-6.8922e-05
-0.00027205
-0.000118411
-0.000465511
-0.000949271
-0.00127152
-0.00244039
-0.00426222
-0.0064193
-0.00954422
-0.0135824
-0.0176015
-0.0212046
-0.0231614
-0.0215297
-0.0155232
-0.00449932
0.0100791
0.0252803
0.0373212
0.0425374
0.0396533
0.0306369
0.0206613
0.013438
0.0102374
0.00794384
0.00177402
-0.0101757
-0.0236229
-0.0306785
-0.0259962
-0.010708
0.00595528
0.0130418
0.00692169
-0.0042887
-0.00995369
-0.00715128
-0.00169138
0.00068062
-0.00058504
-0.00242944
-0.00242962
-0.000585394
0.000680465
-0.00169124
-0.00715107
-0.00995365
-0.0042887
0.00692184
0.013042
0.00595522
-0.0107085
-0.0259969
-0.0306788
-0.0236226
-0.010175
0.00177467
0.00794405
0.0102371
0.0134375
0.020661
0.0306371
0.039654
0.0425383
0.0373218
0.0252804
0.0100787
-0.00449995
-0.015524
-0.0215303
-0.0231618
-0.0212047
-0.0176015
-0.0135823
-0.00954401
-0.00641915
-0.00426217
-0.00244024
-0.00127135
-0.000949291
-0.000465482
-0.000118318
-0.000272138
-6.89366e-05
0.000137285
-3.78999e-05
2.17162e-05
4.96963e-05
-0.00021853
-8.98101e-05
8.61012e-05
7.15553e-05
5.88267e-05
4.96391e-05
0.000108805
-0.000100435
-0.00021807
-9.62939e-05
-0.000187701
-0.000229006
-0.000214287
-0.000625746
-0.00116386
-0.00194484
-0.00351538
-0.00574504
-0.00883737
-0.0133801
-0.0189666
-0.0246192
-0.0295881
-0.0320797
-0.0298173
-0.0213061
-0.00626985
0.0135051
0.0342678
0.0506137
0.05785
0.0544422
0.0434484
0.0304543
0.0204334
0.0152361
0.0110852
0.00176739
-0.0146836
-0.0319078
-0.0403855
-0.0341434
-0.0154654
0.00497549
0.0141102
0.00759352
-0.00564304
-0.0128682
-0.0102673
-0.00410224
-0.00114156
-0.00221365
-0.00407788
-0.00407814
-0.00221417
-0.00114183
-0.00410206
-0.010267
-0.012868
-0.00564313
0.00759347
0.0141102
0.00497532
-0.0154659
-0.034144
-0.0403857
-0.0319075
-0.0146827
0.00176829
0.0110857
0.015236
0.0204331
0.0304542
0.0434488
0.0544431
0.0578511
0.0506145
0.0342679
0.0135046
-0.00627076
-0.0213071
-0.0298182
-0.0320803
-0.0295884
-0.0246192
-0.0189665
-0.0133798
-0.008837
-0.00574481
-0.00351525
-0.00194467
-0.00116379
-0.000625722
-0.00021417
-0.000228991
-0.000187745
-9.62907e-05
-0.000218195
-0.000100503
0.000108933
4.96977e-05
5.88644e-05
7.16083e-05
-5.45525e-05
5.36627e-06
2.16714e-05
-0.000100435
-4.41454e-05
1.27722e-05
-5.8017e-05
-0.000132599
-0.00022911
-0.000537642
-0.000991724
-0.00160505
-0.00280369
-0.00476712
-0.00764188
-0.0117829
-0.0174203
-0.0240739
-0.0309904
-0.0369671
-0.0396855
-0.0366531
-0.0258726
-0.0075018
0.0164848
0.0416638
0.0613317
0.0701191
0.0666502
0.0546405
0.039536
0.0271463
0.0196602
0.013013
0.000310591
-0.0196848
-0.039008
-0.0474893
-0.0397605
-0.0193857
0.00270963
0.0133429
0.00803172
-0.00503018
-0.0129884
-0.0113858
-0.00559973
-0.00234379
-0.00279444
-0.00422667
-0.00422696
-0.00279503
-0.00234408
-0.00559944
-0.0113852
-0.0129881
-0.00503028
0.00803148
0.0133427
0.0027095
-0.0193859
-0.0397607
-0.0474893
-0.0390077
-0.0196841
0.000311498
0.0130136
0.01966
0.0271458
0.0395357
0.0546408
0.0666508
0.07012
0.0613324
0.0416639
0.0164842
-0.00750273
-0.0258735
-0.036654
-0.0396861
-0.0369673
-0.0309902
-0.0240737
-0.0174201
-0.0117826
-0.00764164
-0.004767
-0.00280355
-0.00160493
-0.000991744
-0.00053762
-0.000229032
-0.000132589
-5.79734e-05
1.28425e-05
-4.41933e-05
-0.000100502
2.17162e-05
5.37704e-06
-5.45939e-05
-0.000163707
-9.17272e-05
-3.79057e-05
-0.00021807
1.27722e-05
6.51569e-05
-0.000205572
-0.000213187
-0.000318005
-0.000747872
-0.0011356
-0.00194638
-0.00358235
-0.00593749
-0.00957634
-0.0148277
-0.0215945
-0.0295142
-0.0377819
-0.044569
-0.0472226
-0.0431015
-0.0300113
-0.00843376
0.0193858
0.0482661
0.0706739
0.0810424
0.0782706
0.0661109
0.0497675
0.0353129
0.0247813
0.0141966
-0.00265798
-0.0256073
-0.045883
-0.0536663
-0.0450676
-0.0249603
-0.00366935
0.00746466
0.00453405
-0.00626141
-0.0140346
-0.0140349
-0.00964032
-0.00645424
-0.00608514
-0.00682804
-0.00682831
-0.0060857
-0.00645452
-0.00964
-0.0140342
-0.0140343
-0.00626171
0.00453344
0.00746419
-0.00366953
-0.0249603
-0.0450674
-0.0536661
-0.0458828
-0.0256068
-0.00265715
0.0141973
0.0247813
0.0353125
0.0497673
0.0661112
0.0782712
0.0810432
0.0706748
0.0482664
0.0193853
-0.00843468
-0.0300123
-0.0431025
-0.0472234
-0.0445694
-0.037782
-0.029514
-0.0215942
-0.0148274
-0.00957601
-0.00593727
-0.00358218
-0.00194616
-0.00113553
-0.000747894
-0.00031793
-0.000213208
-0.000205619
6.53291e-05
1.28441e-05
-0.000218195
-3.79048e-05
-9.17812e-05
-0.000163817
-8.07777e-05
7.58915e-05
0.00013716
-9.62939e-05
-5.8017e-05
-0.000205572
-0.000441557
-0.00030382
-0.000478554
-0.00100358
-0.00144763
-0.00259552
-0.00463692
-0.00735497
-0.0116291
-0.0177688
-0.0255654
-0.0347415
-0.0441538
-0.0514787
-0.0539841
-0.0488758
-0.0339479
-0.00975912
0.0209656
0.0522953
0.07661
0.0886457
0.0873881
0.076107
0.0599262
0.0443579
0.0305646
0.0151068
-0.0059902
-0.0307836
-0.050713
-0.0571665
-0.0481699
-0.0298771
-0.0115187
-0.000998573
-0.00086405
-0.00768305
-0.0143109
-0.0161497
-0.0138851
-0.0112087
-0.0101827
-0.0102953
-0.0102955
-0.0101831
-0.0112088
-0.0138848
-0.0161491
-0.0143107
-0.00768353
-0.000864914
-0.000999174
-0.0115186
-0.0298766
-0.0481692
-0.057166
-0.0507128
-0.0307832
-0.00598938
0.0151078
0.030565
0.0443578
0.059926
0.0761073
0.0873885
0.0886464
0.0766108
0.0522957
0.0209652
-0.0097601
-0.0339491
-0.0488768
-0.0539849
-0.0514792
-0.0441539
-0.0347412
-0.0255651
-0.0177684
-0.0116286
-0.0073547
-0.00463681
-0.00259532
-0.00144747
-0.00100358
-0.00047844
-0.00030376
-0.000441722
-0.000205622
-5.79746e-05
-9.62886e-05
0.000137286
7.59538e-05
-8.0821e-05
-1.78544e-05
9.70591e-06
-6.8922e-05
-0.000187701
-0.000132599
-0.000213187
-0.00030382
-0.000319218
-0.000759234
-0.0013659
-0.00204385
-0.00356368
-0.00588495
-0.00915657
-0.0143353
-0.0214545
-0.0301399
-0.0401805
-0.0502378
-0.0576285
-0.0595817
-0.053278
-0.0367298
-0.0104808
0.0219829
0.0542191
0.0793537
0.0926746
0.0930797
0.0832027
0.0682428
0.0521932
0.0347607
0.0137201
-0.0114691
-0.037018
-0.055555
-0.0601963
-0.0510923
-0.035559
-0.021528
-0.0124793
-0.00895063
-0.0105237
-0.0148824
-0.0181257
-0.0181186
-0.0162898
-0.0150376
-0.014854
-0.014854
-0.0150376
-0.0162896
-0.0181182
-0.0181253
-0.0148824
-0.0105244
-0.0089516
-0.0124798
-0.0215276
-0.035558
-0.0510914
-0.0601957
-0.0555548
-0.0370178
-0.0114685
0.0137209
0.0347613
0.0521931
0.0682423
0.0832025
0.0930798
0.092675
0.0793542
0.0542195
0.0219828
-0.0104815
-0.0367308
-0.0532788
-0.0595824
-0.0576289
-0.0502379
-0.0401802
-0.0301396
-0.0214542
-0.0143349
-0.00915621
-0.0058848
-0.00356356
-0.00204368
-0.0013659
-0.000759194
-0.000319026
-0.000303758
-0.000213208
-0.00013259
-0.000187745
-6.89364e-05
9.75402e-06
-1.78301e-05
-6.18734e-05
-0.000208622
-0.00027205
-0.000229006
-0.00022911
-0.000318005
-0.000478554
-0.000759234
-0.00124132
-0.00177554
-0.00267379
-0.00450861
-0.00720171
-0.0111944
-0.0173042
-0.025439
-0.0351662
-0.0462363
-0.0570262
-0.0643805
-0.0655455
-0.0578972
-0.0396925
-0.0116422
0.021856
0.0542149
0.0797815
0.0943567
0.0966797
0.0890264
0.076243
0.0600338
0.0385322
0.0114633
-0.0178091
-0.0438117
-0.0607737
-0.0638999
-0.0554483
-0.0437282
-0.0351151
-0.0285203
-0.0220963
-0.0182027
-0.0194875
-0.0233506
-0.0253192
-0.0246904
-0.0239019
-0.0239662
-0.0239659
-0.0239014
-0.0246899
-0.025319
-0.0233507
-0.019488
-0.0182036
-0.0220974
-0.0285207
-0.0351145
-0.0437268
-0.0554471
-0.0638994
-0.0607736
-0.0438115
-0.0178087
0.0114641
0.0385331
0.0600341
0.0762426
0.089026
0.0966798
0.0943572
0.0797821
0.0542154
0.0218563
-0.0116426
-0.0396934
-0.0578981
-0.0655463
-0.0643811
-0.0570265
-0.0462361
-0.0351658
-0.0254387
-0.0173038
-0.0111939
-0.00720138
-0.00450843
-0.00267353
-0.00177542
-0.00124139
-0.000759194
-0.000478439
-0.000317929
-0.000229031
-0.000228993
-0.000272141
-0.000208697
-6.18847e-05
3.0306e-05
-5.81481e-05
-0.000118411
-0.000214287
-0.000537642
-0.000747872
-0.00100358
-0.0013659
-0.00177554
-0.00257017
-0.00394706
-0.00610219
-0.00932024
-0.0140747
-0.0208737
-0.0297979
-0.04049
-0.0524226
-0.0636337
-0.0707363
-0.0711409
-0.0624531
-0.0430699
-0.0142388
0.0189793
0.0504276
0.0756907
0.0910937
0.0955032
0.0911876
0.0815629
0.0657327
0.0407317
0.00853571
-0.0239997
-0.0499732
-0.0649621
-0.0666836
-0.0593952
-0.0520414
-0.0490252
-0.0453953
-0.0369765
-0.0281989
-0.025874
-0.0292634
-0.0325664
-0.0334009
-0.0337764
-0.0346117
-0.0346112
-0.0337754
-0.0334001
-0.0325664
-0.0292641
-0.0258749
-0.0281998
-0.0369772
-0.0453954
-0.0490242
-0.0520396
-0.0593938
-0.066683
-0.0649618
-0.0499728
-0.0239992
0.00853643
0.0407327
0.0657333
0.0815625
0.0911868
0.095503
0.0910941
0.0756911
0.050428
0.0189797
-0.0142389
-0.0430707
-0.0624541
-0.0711415
-0.0707367
-0.0636339
-0.0524224
-0.0404895
-0.0297974
-0.0208733
-0.0140742
-0.00931989
-0.00610202
-0.00394685
-0.00256991
-0.00177542
-0.0013659
-0.00100358
-0.000747896
-0.000537621
-0.00021417
-0.000118316
-5.80989e-05
3.03341e-05
7.10892e-06
-0.000241177
-0.000465511
-0.000625746
-0.000991724
-0.0011356
-0.00144763
-0.00204385
-0.00267379
-0.00394706
-0.00583862
-0.00831631
-0.0122651
-0.0180209
-0.0256884
-0.0356812
-0.0474723
-0.0598859
-0.0709303
-0.0774463
-0.0767908
-0.0667269
-0.0461966
-0.0173525
0.0145819
0.0443398
0.0682776
0.0835281
0.0897857
0.0891496
0.0825886
0.0669048
0.0390689
0.00288365
-0.0322715
-0.058086
-0.0709444
-0.0715005
-0.0659871
-0.0631207
-0.0650437
-0.0642159
-0.0548022
-0.0421415
-0.0358443
-0.0374285
-0.0411284
-0.0433964
-0.0452778
-0.0470854
-0.0470849
-0.0452765
-0.0433955
-0.0411286
-0.0374297
-0.0358456
-0.0421423
-0.0548025
-0.0642155
-0.0650424
-0.0631188
-0.0659856
-0.0715
-0.0709443
-0.0580857
-0.032271
0.00288402
0.0390694
0.0669052
0.0825881
0.0891484
0.0897849
0.0835283
0.0682781
0.0443403
0.0145825
-0.0173522
-0.0461969
-0.0667276
-0.0767914
-0.0774466
-0.0709305
-0.0598859
-0.0474719
-0.0356807
-0.0256879
-0.0180205
-0.0122646
-0.008316
-0.0058385
-0.00394685
-0.00267353
-0.00204368
-0.00144747
-0.00113553
-0.000991743
-0.000625723
-0.000465483
-0.000241121
7.16252e-06
-0.000167398
-0.000640712
-0.000949271
-0.00116386
-0.00160505
-0.00194638
-0.00259552
-0.00356368
-0.00450861
-0.00610219
-0.00831631
-0.0112591
-0.0161478
-0.0229448
-0.0315534
-0.0428296
-0.0558611
-0.0687822
-0.0798252
-0.0860457
-0.084285
-0.0726155
-0.0511968
-0.0228616
0.00758098
0.0355994
0.0578213
0.0727298
0.0813639
0.0847996
0.0810793
0.0655731
0.0360776
-0.00274849
-0.0400291
-0.0657995
-0.0768743
-0.0771637
-0.0746734
-0.0765909
-0.082731
-0.0845368
-0.0755428
-0.0606466
-0.0506827
-0.0496059
-0.0530077
-0.0565574
-0.0598466
-0.0624039
-0.0624034
-0.0598455
-0.0565567
-0.0530082
-0.0496075
-0.0506844
-0.0606475
-0.0755427
-0.084536
-0.0827296
-0.0765891
-0.074672
-0.0771631
-0.0768742
-0.0657993
-0.0400287
-0.00274822
0.0360778
0.0655732
0.0810789
0.0847985
0.0813629
0.0727298
0.0578221
0.0356002
0.00758163
-0.0228612
-0.0511969
-0.0726161
-0.0842859
-0.0860462
-0.0798254
-0.0687822
-0.0558609
-0.0428291
-0.0315528
-0.0229444
-0.0161472
-0.0112585
-0.008316
-0.00610202
-0.00450843
-0.00356356
-0.00259532
-0.00194616
-0.00160493
-0.00116379
-0.000949295
-0.000640772
-0.000167411
-0.000232565
-0.000758225
-0.00127152
-0.00194484
-0.00280369
-0.00358235
-0.00463692
-0.00588495
-0.00720171
-0.00932024
-0.0122651
-0.0161478
-0.0220065
-0.0297342
-0.0393469
-0.0517214
-0.065579
-0.0787788
-0.0897267
-0.0954448
-0.0923848
-0.0793754
-0.0579555
-0.0309355
-0.00250729
0.0229904
0.0427181
0.0571319
0.0684433
0.0758054
0.0746919
0.0601382
0.0308429
-0.00859743
-0.0465804
-0.0714033
-0.0804915
-0.0810917
-0.0823355
-0.0886351
-0.0976291
-0.101367
-0.0937333
-0.0781224
-0.0650843
-0.0609571
-0.0635209
-0.0678754
-0.0718384
-0.0744304
-0.07443
-0.0718376
-0.067875
-0.0635216
-0.0609588
-0.0650859
-0.0781229
-0.0937327
-0.101365
-0.0976275
-0.0886334
-0.0823341
-0.0810909
-0.0804913
-0.0714033
-0.0465802
-0.00859729
0.0308427
0.0601377
0.0746913
0.0758045
0.0684422
0.0571314
0.0427187
0.0229914
-0.00250665
-0.0309352
-0.0579554
-0.0793758
-0.0923856
-0.0954455
-0.0897268
-0.0787787
-0.0655787
-0.0517208
-0.0393461
-0.0297337
-0.0220061
-0.0161473
-0.0122646
-0.00931989
-0.00720139
-0.00588481
-0.00463682
-0.00358218
-0.00280355
-0.00194467
-0.00127135
-0.000758148
-0.000232553
-0.000425915
-0.00142306
-0.00244039
-0.00351538
-0.00476712
-0.00593749
-0.00735497
-0.00915657
-0.0111944
-0.0140747
-0.0180209
-0.0229448
-0.0297342
-0.038727
-0.0497992
-0.0632722
-0.0778226
-0.0912468
-0.101653
-0.106064
-0.101234
-0.0868946
-0.0654828
-0.0396207
-0.013374
0.00895602
0.0258736
0.0398888
0.0534568
0.0636772
0.0645681
0.0514576
0.023488
-0.0150917
-0.0522305
-0.0751217
-0.0823968
-0.0841947
-0.0896867
-0.0997574
-0.110233
-0.115003
-0.109115
-0.093994
-0.0787863
-0.071767
-0.0730899
-0.0773915
-0.0807547
-0.0823273
-0.0823273
-0.0807547
-0.0773918
-0.0730909
-0.0717685
-0.0787875
-0.0939941
-0.109114
-0.115001
-0.110232
-0.0997561
-0.0896855
-0.0841937
-0.0823965
-0.0751221
-0.052231
-0.015092
0.0234873
0.0514563
0.0645669
0.0636763
0.0534558
0.0398879
0.0258738
0.00895714
-0.013373
-0.0396203
-0.0654827
-0.0868947
-0.101235
-0.106065
-0.101653
-0.0912467
-0.0778224
-0.0632719
-0.0497985
-0.0387264
-0.0297337
-0.0229444
-0.0180205
-0.0140742
-0.0111939
-0.00915621
-0.0073547
-0.00593727
-0.004767
-0.00351525
-0.00244024
-0.00142295
-0.000425856
-0.000745524
-0.00254391
-0.00426222
-0.00574504
-0.00764188
-0.00957634
-0.0116291
-0.0143353
-0.0173042
-0.0208737
-0.0256884
-0.0315534
-0.0393469
-0.0497992
-0.0622794
-0.0766293
-0.0919487
-0.105734
-0.115344
-0.118213
-0.111764
-0.0961462
-0.0742353
-0.0490434
-0.0249048
-0.00541824
0.00970871
0.0242087
0.0397661
0.0522677
0.0553111
0.0442719
0.018393
-0.0179061
-0.0522693
-0.0723484
-0.0785195
-0.0827231
-0.0929354
-0.106491
-0.117764
-0.123006
-0.119069
-0.105654
-0.0898183
-0.080818
-0.0807876
-0.0840673
-0.0854786
-0.0850233
-0.0850237
-0.0854795
-0.0840686
-0.0807889
-0.0808192
-0.0898189
-0.105653
-0.119067
-0.123005
-0.117763
-0.106491
-0.0929344
-0.082722
-0.0785191
-0.0723492
-0.0522705
-0.017907
0.0183921
0.0442705
0.0553096
0.0522668
0.0397655
0.024208
0.00970858
-0.00541731
-0.0249036
-0.049043
-0.0742354
-0.0961466
-0.111765
-0.118214
-0.115344
-0.105735
-0.0919486
-0.076629
-0.0622789
-0.0497985
-0.0393461
-0.0315528
-0.0256879
-0.0208733
-0.0173038
-0.0143349
-0.0116286
-0.00957602
-0.00764164
-0.00574481
-0.00426218
-0.00254389
-0.000745452
-0.00114046
-0.0037735
-0.0064193
-0.00883737
-0.0117829
-0.0148277
-0.0177688
-0.0214545
-0.025439
-0.0297979
-0.0356812
-0.0428296
-0.0517214
-0.0632722
-0.0766293
-0.0913436
-0.106861
-0.120233
-0.128277
-0.129243
-0.121089
-0.104045
-0.0815233
-0.0574104
-0.035893
-0.0189581
-0.00487689
0.0102225
0.0271371
0.0417231
0.0474363
0.039056
0.0162171
-0.0155441
-0.0442687
-0.0600819
-0.0653022
-0.07214
-0.0865526
-0.10292
-0.114339
-0.119266
-0.116899
-0.106051
-0.0912499
-0.0813782
-0.0798218
-0.0810528
-0.079412
-0.076273
-0.0762737
-0.0794137
-0.0810549
-0.0798234
-0.0813789
-0.0912495
-0.106049
-0.116897
-0.119265
-0.114338
-0.10292
-0.0865517
-0.0721387
-0.0653015
-0.0600828
-0.0442707
-0.0155459
0.0162159
0.0390545
0.0474345
0.0417218
0.0271364
0.0102219
-0.00487738
-0.0189579
-0.0358922
-0.0574099
-0.0815235
-0.104046
-0.12109
-0.129244
-0.128278
-0.120233
-0.106861
-0.0913433
-0.0766289
-0.0632719
-0.0517208
-0.0428291
-0.0356807
-0.0297974
-0.0254387
-0.0214543
-0.0177684
-0.0148274
-0.0117826
-0.008837
-0.00641914
-0.0037734
-0.00114034
-0.0018401
-0.00563066
-0.00954422
-0.0133801
-0.0174203
-0.0215945
-0.0255654
-0.0301399
-0.0351662
-0.04049
-0.0474723
-0.0558611
-0.065579
-0.0778226
-0.0919487
-0.106861
-0.121911
-0.134035
-0.13979
-0.138039
-0.127224
-0.107914
-0.0842634
-0.0609743
-0.0414969
-0.0260903
-0.0124578
0.0029042
0.020497
0.0367317
0.0445612
0.0380993
0.0183682
-0.00730731
-0.0285988
-0.0397002
-0.0445491
-0.054157
-0.072261
-0.091116
-0.102517
-0.10659
-0.105377
-0.0978344
-0.0856308
-0.0758527
-0.0724712
-0.0708166
-0.0656176
-0.0597101
-0.059711
-0.0656198
-0.0708191
-0.0724729
-0.0758529
-0.0856296
-0.0978325
-0.105375
-0.106588
-0.102516
-0.0911152
-0.0722602
-0.0541559
-0.0445485
-0.0397012
-0.0286014
-0.00731009
0.0183663
0.0380979
0.0445596
0.0367302
0.0204961
0.0029038
-0.0124581
-0.0260903
-0.0414965
-0.0609738
-0.0842634
-0.107915
-0.127225
-0.138041
-0.139791
-0.134036
-0.121912
-0.106861
-0.0919486
-0.0778224
-0.0655787
-0.0558609
-0.0474719
-0.0404895
-0.0351658
-0.0301396
-0.0255651
-0.0215942
-0.0174201
-0.0133798
-0.00954401
-0.00563048
-0.00183999
-0.00281014
-0.00815204
-0.0135824
-0.0189666
-0.0240739
-0.0295142
-0.0347415
-0.0401805
-0.0462363
-0.0524226
-0.0598859
-0.0687822
-0.0787788
-0.0912468
-0.105734
-0.120233
-0.134035
-0.144379
-0.147456
-0.142344
-0.128267
-0.106401
-0.0813424
-0.0582964
-0.039792
-0.0248702
-0.0111763
0.00457891
0.0229538
0.0405865
0.049581
0.0442593
0.0279313
0.00955028
-0.00343876
-0.00992221
-0.014878
-0.0272317
-0.0486691
-0.0700522
-0.0817989
-0.0851747
-0.08528
-0.0819515
-0.0737433
-0.0648976
-0.0596019
-0.0548698
-0.0464866
-0.0383819
-0.0383828
-0.0464888
-0.0548723
-0.0596035
-0.0648973
-0.0737415
-0.081949
-0.0852776
-0.0851729
-0.0817977
-0.0700514
-0.0486683
-0.0272309
-0.0148777
-0.00992327
-0.00344141
0.00954697
0.0279288
0.0442581
0.0495803
0.0405856
0.022953
0.00457866
-0.0111763
-0.0248701
-0.0397919
-0.0582961
-0.0813424
-0.106402
-0.128269
-0.142346
-0.147457
-0.144381
-0.134036
-0.120233
-0.105735
-0.0912467
-0.0787786
-0.0687822
-0.0598859
-0.0524224
-0.0462361
-0.0401802
-0.0347412
-0.029514
-0.0240737
-0.0189665
-0.0135823
-0.00815199
-0.00281014
-0.00369353
-0.0105745
-0.0176015
-0.0246192
-0.0309904
-0.0377819
-0.0441538
-0.0502378
-0.0570262
-0.0636337
-0.0709303
-0.0798252
-0.0897267
-0.101653
-0.115344
-0.128277
-0.13979
-0.147456
-0.147186
-0.138237
-0.120863
-0.096801
-0.0706699
-0.0479778
-0.0303586
-0.0160092
-0.00240434
0.0137775
0.0328913
0.0511205
0.0600633
0.0555406
0.0432618
0.0329579
0.0285409
0.0267457
0.0218672
0.0073128
-0.0167716
-0.040389
-0.0528438
-0.0561511
-0.05811
-0.0596084
-0.056115
-0.0486984
-0.0416921
-0.0343764
-0.0238857
-0.0145895
-0.0145902
-0.0238875
-0.0343783
-0.0416929
-0.0486977
-0.0561128
-0.0596054
-0.0581071
-0.0561489
-0.0528424
-0.040388
-0.0167707
0.00731342
0.0218672
0.0267446
0.0285386
0.0329548
0.0432592
0.0555395
0.0600634
0.0511204
0.0328906
0.0137772
-0.00240423
-0.016009
-0.0303586
-0.0479777
-0.07067
-0.0968017
-0.120865
-0.138239
-0.147187
-0.147457
-0.139791
-0.128278
-0.115344
-0.101653
-0.0897268
-0.0798254
-0.0709305
-0.0636339
-0.0570264
-0.0502379
-0.0441539
-0.037782
-0.0309902
-0.0246192
-0.0176015
-0.0105744
-0.00369357
-0.00447401
-0.0127759
-0.0212046
-0.0295881
-0.0369671
-0.044569
-0.0514787
-0.0576285
-0.0643805
-0.0707363
-0.0774463
-0.0860457
-0.0954448
-0.106064
-0.118213
-0.129243
-0.138039
-0.142344
-0.138237
-0.12507
-0.104104
-0.0777708
-0.050637
-0.0283441
-0.0117248
0.00160712
0.0146163
0.0306083
0.049192
0.0657875
0.0725255
0.0677328
0.0589132
0.055703
0.0587305
0.0611261
0.056354
0.0400735
0.0141829
-0.0110181
-0.0245362
-0.0287514
-0.0331198
-0.0392907
-0.0402846
-0.0344297
-0.0262206
-0.0172747
-0.0060293
0.0033677
0.00336717
-0.00603045
-0.0172756
-0.0262205
-0.0344283
-0.0402824
-0.0392879
-0.0331168
-0.0287488
-0.0245345
-0.0110171
0.0141835
0.0400736
0.0563533
0.0611245
0.0587283
0.0557002
0.0589106
0.0677317
0.072526
0.0657884
0.0491921
0.0306082
0.0146165
0.00160767
-0.0117244
-0.0283437
-0.0506368
-0.0777712
-0.104105
-0.125071
-0.138239
-0.142346
-0.138041
-0.129244
-0.118214
-0.106065
-0.0954455
-0.0860462
-0.0774466
-0.0707367
-0.0643811
-0.0576289
-0.0514792
-0.0445694
-0.0369673
-0.0295884
-0.0212047
-0.0127759
-0.0044741
-0.00496663
-0.0141018
-0.0231614
-0.0320797
-0.0396855
-0.0472226
-0.0539841
-0.0595817
-0.0655455
-0.0711409
-0.0767908
-0.084285
-0.0923848
-0.101234
-0.111764
-0.121089
-0.127224
-0.128267
-0.120863
-0.104104
-0.0802367
-0.0525772
-0.0253839
-0.00402921
0.0112118
0.0230933
0.0352933
0.0507271
0.0677236
0.0810437
0.0844209
0.0789304
0.0729138
0.0754104
0.0845285
0.0905691
0.0858888
0.0683446
0.0415687
0.0154083
6.70777e-05
-0.00655794
-0.0140121
-0.0243468
-0.0293914
-0.0255942
-0.0173793
-0.00822899
0.00231571
0.0107837
0.0107834
0.00231538
-0.00822859
-0.0173779
-0.0255921
-0.0293892
-0.0243445
-0.0140094
-0.00655526
6.9094e-05
0.0154094
0.0415689
0.068344
0.0858873
0.0905671
0.0845265
0.0754082
0.0729118
0.0789295
0.0844217
0.0810454
0.0677247
0.0507274
0.0352937
0.0230942
0.0112127
-0.00402846
-0.0253833
-0.0525771
-0.0802372
-0.104105
-0.120865
-0.128269
-0.127225
-0.12109
-0.111765
-0.101235
-0.0923855
-0.0842858
-0.0767913
-0.0711415
-0.0655462
-0.0595823
-0.0539849
-0.0472234
-0.039686
-0.0320803
-0.0231618
-0.0141021
-0.00496682
-0.00463211
-0.013139
-0.0215297
-0.0298173
-0.0366531
-0.0431015
-0.0488758
-0.053278
-0.0578972
-0.0624531
-0.0667269
-0.0726155
-0.0793754
-0.0868946
-0.0961462
-0.104045
-0.107914
-0.106401
-0.096801
-0.0777708
-0.0525772
-0.0252544
0.000595239
0.0200042
0.0329065
0.0425582
0.0535665
0.067816
0.0820988
0.0909916
0.0905706
0.0842516
0.0804205
0.0873923
0.101561
0.11103
0.106915
0.0892426
0.0631326
0.0371002
0.0196377
0.009792
-0.000573208
-0.0138695
-0.0222999
-0.0212004
-0.0143238
-0.00627367
0.002409
0.00914388
0.00914397
0.0024096
-0.00627199
-0.014321
-0.0211975
-0.0222975
-0.0138677
-0.000571224
0.00979432
0.0196397
0.0371012
0.0631323
0.0892412
0.106913
0.111027
0.101559
0.0873907
0.0804193
0.0842512
0.0905715
0.0909935
0.0821006
0.067817
0.0535669
0.042559
0.0329077
0.0200053
0.000596023
-0.025254
-0.0525771
-0.0777712
-0.0968017
-0.106402
-0.107915
-0.104046
-0.0961466
-0.0868946
-0.0793757
-0.0726161
-0.0667276
-0.062454
-0.0578981
-0.0532788
-0.0488768
-0.0431024
-0.036654
-0.0298182
-0.0215303
-0.0131393
-0.00463235
-0.00342014
-0.00962052
-0.0155232
-0.0213061
-0.0258726
-0.0300113
-0.0339479
-0.0367298
-0.0396925
-0.0430699
-0.0461966
-0.0511968
-0.0579555
-0.0654828
-0.0742353
-0.0815233
-0.0842634
-0.0813424
-0.0706699
-0.050637
-0.0253839
0.000595239
0.0241146
0.0405077
0.0500429
0.0568817
0.0662581
0.0783263
0.0886794
0.0924135
0.0881235
0.080819
0.0785835
0.08906
0.107533
0.120462
0.117846
0.101672
0.078069
0.0535942
0.0345874
0.021947
0.00976563
-0.00503397
-0.0163124
-0.0185736
-0.0141142
-0.00805099
-0.00205298
0.0023088
0.00230931
-0.00205133
-0.0080481
-0.0141104
-0.0185698
-0.0163097
-0.00503232
0.0097669
0.0219484
0.0345888
0.0535947
0.0780682
0.101669
0.117843
0.120459
0.10753
0.0890586
0.0785828
0.0808189
0.088124
0.0924149
0.0886812
0.0783276
0.0662585
0.0568821
0.0500441
0.0405093
0.0241159
0.000596021
-0.0253833
-0.0506368
-0.07067
-0.0813425
-0.0842634
-0.0815235
-0.0742354
-0.0654826
-0.0579554
-0.0511968
-0.0461968
-0.0430707
-0.0396933
-0.0367307
-0.033949
-0.0300123
-0.0258735
-0.0213071
-0.015524
-0.00962105
-0.00342043
-0.00104933
-0.00287129
-0.00449932
-0.00626985
-0.0075018
-0.00843376
-0.00975912
-0.0104808
-0.0116422
-0.0142388
-0.0173525
-0.0228616
-0.0309355
-0.0396207
-0.0490434
-0.0574104
-0.0609743
-0.0582964
-0.0479778
-0.0283441
-0.00402921
0.0200042
0.0405077
0.0535416
0.0601889
0.065277
0.0736739
0.0835987
0.0902972
0.0897071
0.0823891
0.074265
0.073297
0.0865155
0.108455
0.124465
0.123748
0.109881
0.0896589
0.0676618
0.0480201
0.0335023
0.0203851
0.00464559
-0.0097204
-0.0161756
-0.0149774
-0.0115701
-0.00903992
-0.00773254
-0.00773153
-0.00903715
-0.0115662
-0.0149729
-0.0161713
-0.00971714
0.00464747
0.0203859
0.0335026
0.0480202
0.0676614
0.0896575
0.109878
0.123745
0.124462
0.108453
0.0865141
0.0732967
0.0742655
0.0823897
0.0897079
0.0902986
0.0836002
0.0736747
0.0652771
0.0601895
0.053543
0.0405093
0.0200053
-0.00402848
-0.0283437
-0.0479778
-0.0582961
-0.0609739
-0.0574099
-0.049043
-0.0396203
-0.0309352
-0.0228611
-0.0173522
-0.0142389
-0.0116426
-0.0104814
-0.00976007
-0.00843467
-0.00750271
-0.00627075
-0.00449995
-0.00287173
-0.00104955
0.00210065
0.00610673
0.0100791
0.0135051
0.0164848
0.0193858
0.0209656
0.0219829
0.021856
0.0189793
0.0145819
0.00758098
-0.00250729
-0.013374
-0.0249048
-0.035893
-0.0414969
-0.039792
-0.0303586
-0.0117248
0.0112118
0.0329065
0.0500429
0.0601889
0.06514
0.0694598
0.0770815
0.0851072
0.0891802
0.0856116
0.0761396
0.0674818
0.0680018
0.0839086
0.108975
0.127848
0.129324
0.118235
0.102102
0.0839653
0.0655866
0.0507286
0.0372936
0.0205263
0.00266239
-0.00839298
-0.0107836
-0.0104767
-0.0121846
-0.0146341
-0.0146326
-0.0121807
-0.0104718
-0.0107787
-0.00838858
0.00266604
0.0205287
0.0372946
0.0507281
0.0655851
0.0839635
0.1021
0.118232
0.129321
0.127845
0.108973
0.0839071
0.0680016
0.0674827
0.0761406
0.0856122
0.0891808
0.0851082
0.0770824
0.06946
0.0651401
0.0601895
0.0500441
0.0329077
0.0112127
-0.0117244
-0.0303586
-0.0397919
-0.0414965
-0.0358922
-0.0249036
-0.013373
-0.00250664
0.00758163
0.0145825
0.0189797
0.0218563
0.0219828
0.0209652
0.0193853
0.0164842
0.0135046
0.0100787
0.00610647
0.00210054
0.00533978
0.0153974
0.0252803
0.0342678
0.0416638
0.0482661
0.0522953
0.0542191
0.0542149
0.0504276
0.0443398
0.0355994
0.0229904
0.00895602
-0.00541824
-0.0189581
-0.0260903
-0.0248702
-0.0160092
0.00160712
0.0230933
0.0425582
0.0568817
0.065277
0.0694598
0.0732388
0.0800893
0.08695
0.0895696
0.0837507
0.0722047
0.0629675
0.0651777
0.083558
0.110846
0.131366
0.134147
0.125286
0.113419
0.100433
0.0851496
0.0709569
0.0569515
0.0384863
0.0168233
0.00119761
-0.00487566
-0.00813
-0.0148163
-0.021611
-0.0216092
-0.0148116
-0.00812435
-0.00487053
0.00120189
0.016827
0.0384893
0.0569529
0.0709561
0.0851471
0.100429
0.113416
0.125283
0.134146
0.131365
0.110845
0.0835567
0.0651773
0.0629685
0.0722063
0.0837517
0.0895699
0.08695
0.0800897
0.0732392
0.06946
0.0652771
0.0568822
0.042559
0.0230942
0.00160767
-0.016009
-0.0248701
-0.0260903
-0.0189579
-0.00541733
0.00895713
0.0229914
0.0356002
0.0443403
0.050428
0.0542154
0.0542195
0.0522957
0.0482664
0.0416639
0.0342679
0.0252803
0.0153974
0.00533981
0.00795968
0.0228356
0.0373212
0.0506137
0.0613317
0.0706739
0.07661
0.0793537
0.0797815
0.0756907
0.0682776
0.0578213
0.0427181
0.0258736
0.00970871
-0.00487689
-0.0124578
-0.0111763
-0.00240434
0.0146163
0.0352933
0.0535665
0.0662581
0.0736739
0.0770815
0.0800893
0.0863158
0.0924639
0.0934225
0.0843534
0.0696507
0.0592445
0.062756
0.0824663
0.109839
0.129481
0.131653
0.123968
0.116395
0.109515
0.0984516
0.085103
0.0698832
0.049316
0.024212
0.00450675
-0.0052664
-0.0125011
-0.0245461
-0.0358483
-0.0358463
-0.0245411
-0.0124952
-0.0052612
0.00451079
0.0242153
0.0493187
0.0698848
0.0851024
0.0984485
0.10951
0.116391
0.123965
0.131652
0.129481
0.109839
0.0824656
0.0627554
0.0592451
0.0696525
0.0843554
0.0934236
0.0924639
0.0863157
0.0800897
0.0770824
0.0736747
0.0662585
0.053567
0.0352937
0.0146166
-0.00240423
-0.0111763
-0.0124582
-0.00487739
0.00970856
0.0258737
0.0427186
0.0578221
0.0682781
0.0756911
0.079782
0.0793542
0.0766107
0.0706747
0.0613324
0.0506145
0.0373218
0.022836
0.00795987