/*--------------------------------*- C++ -*----------------------------------*\
  =========                 |
  \\      /  F ield         | OpenFOAM: The Open Source CFD Toolbox
   \\    /   O peration     | Website:  https://openfoam.org
    \\  /    A nd           | Version:  10
     \\/     M anipulation  |
\*---------------------------------------------------------------------------*/
FoamFile
{
    format      ascii;
    class       volScalarField;
    location    "90";
    object      h_0;
}
// * * * * * * * * * * * * * * * * * * * * * * * * * * * * * * * * * * * * * //

dimensions      [0 1 0 0 0 0 0];

internalField   nonuniform List<scalar> 
10000
(
-0.000456594
-0.00113945
-0.00127394
-0.000876863
-0.000253431
0.000248676
0.000461518
0.00044003
0.000347717
0.000313234
0.000378397
0.000524551
0.000699659
0.000846283
0.000939576
0.000997951
0.00104902
0.00109679
0.00112194
0.00107535
0.000852397
0.000325711
-0.000515946
-0.00145175
-0.00211191
-0.00223518
-0.00183102
-0.001106
-0.000299869
0.000425601
0.00102041
0.00149738
0.00181657
0.00181976
0.00132987
0.000330528
-0.000978737
-0.00228395
-0.00328752
-0.00380577
-0.00383413
-0.003522
-0.00303546
-0.00243649
-0.00170052
-0.000806236
0.000211335
0.00124562
0.0021191
0.00262664
0.00262673
0.00211937
0.00124608
0.000212
-0.000805354
-0.00169945
-0.00243527
-0.00303416
-0.00352069
-0.00383289
-0.00380468
-0.00328667
-0.00228338
-0.000978477
0.000330474
0.00132955
0.00181922
0.00181589
0.00149664
0.00101968
0.000424909
-0.0003005
-0.00110655
-0.00183146
-0.00223549
-0.00211208
-0.00145177
-0.000515835
0.000325919
0.000852662
0.00107563
0.00112219
0.00109699
0.00104915
0.000998021
0.000939609
0.000846295
0.000699654
0.000524527
0.000378353
0.000313176
0.000347653
0.000439972
0.000461473
0.000248645
-0.000253457
-0.000876892
-0.00127397
-0.00113948
-0.000456603
-0.00113945
-0.00279808
-0.00299121
-0.0017996
-9.17924e-05
0.00117134
0.0015563
0.00126546
0.000803155
0.000568143
0.000710541
0.00120175
0.00189379
0.00258715
0.00314727
0.00355735
0.00384414
0.00399865
0.00397697
0.00366675
0.00279532
0.00101978
-0.00166364
-0.00458018
-0.00662721
-0.00703657
-0.00585137
-0.00370167
-0.00130812
0.000852219
0.0026382
0.00409149
0.0050962
0.00518672
0.0038362
0.000986308
-0.00277973
-0.00653472
-0.00940685
-0.0108736
-0.0109399
-0.0100524
-0.00870037
-0.00706629
-0.00506808
-0.00261653
0.00021451
0.00312632
0.0056007
0.00704136
0.00704165
0.00560158
0.00312781
0.000216625
-0.0026138
-0.00506482
-0.00706265
-0.00869657
-0.0100487
-0.0109365
-0.0108706
-0.00940451
-0.00653318
-0.00277905
0.000986138
0.00383528
0.00518522
0.00509432
0.00408944
0.00263615
0.000850263
-0.00130993
-0.00370326
-0.00585267
-0.00703751
-0.00662772
-0.00458026
-0.00166333
0.00102038
0.00279609
0.00366757
0.00397771
0.00399923
0.00384452
0.00355756
0.00314738
0.0025872
0.0018938
0.00120171
0.000710442
0.000568001
0.000802995
0.00126532
0.00155619
0.00117128
-9.18391e-05
-0.00179966
-0.00299129
-0.00279815
-0.00113948
-0.00127394
-0.00299121
-0.00277768
-0.000842115
0.00152052
0.0029554
0.00293638
0.0018862
0.000655851
-7.57342e-05
4.02507e-06
0.000931561
0.00249903
0.00431438
0.0059963
0.00732
0.00817495
0.00848774
0.00822225
0.00728332
0.00532348
0.00187102
-0.0030077
-0.00816469
-0.0117886
-0.0126432
-0.0108327
-0.00742008
-0.00359084
-9.9768e-05
0.00285512
0.00535885
0.00722891
0.00770828
0.00592088
0.00173072
-0.00394968
-0.00963368
-0.0139411
-0.0160885
-0.0161393
-0.0148308
-0.0129472
-0.0107738
-0.00813986
-0.00481638
-0.000829471
0.00339301
0.00703853
0.00917409
0.00917464
0.00704018
0.00339574
-0.000825693
-0.00481165
-0.00813438
-0.0107679
-0.0129412
-0.014825
-0.0161341
-0.0160842
-0.0139377
-0.00963153
-0.00394877
0.00173043
0.00591953
0.00770609
0.00722617
0.00535585
0.00285208
-0.000102718
-0.00359361
-0.00742257
-0.0108348
-0.0126447
-0.0117895
-0.00816486
-0.00300725
0.00187194
0.00532466
0.00728455
0.00822336
0.0084886
0.00817551
0.00732034
0.0059965
0.0043145
0.0024991
0.000931565
3.95447e-06
-7.58743e-05
0.00065567
0.00188603
0.00293627
0.00295536
0.0015205
-0.000842152
-0.00277775
-0.00299129
-0.00127397
-0.000876863
-0.0017996
-0.000842115
0.00162184
0.00408193
0.00507779
0.00417866
0.00205128
-0.000181832
-0.00161578
-0.00174055
-0.000355776
0.00235363
0.0057949
0.00922244
0.0120292
0.0138231
0.0144105
0.0137915
0.0119613
0.00858016
0.00311915
-0.00424566
-0.011904
-0.0173875
-0.0190391
-0.0170315
-0.0128236
-0.00799278
-0.0034808
0.000530812
0.00420477
0.00730098
0.0087714
0.00736499
0.00279453
-0.00380237
-0.0104882
-0.0154878
-0.017868
-0.0178144
-0.0163473
-0.0145009
-0.0126163
-0.0103691
-0.00728231
-0.00320829
0.00140167
0.00552741
0.00798234
0.00798317
0.00552987
0.00140569
-0.00320285
-0.00727569
-0.0103616
-0.0126085
-0.0144932
-0.0163401
-0.0178081
-0.0178628
-0.0154839
-0.0104857
-0.00380132
0.00279421
0.00736345
0.00876887
0.00729777
0.00420121
0.000527139
-0.00348443
-0.00799624
-0.0128268
-0.0170342
-0.0190411
-0.0173887
-0.0119043
-0.00424515
0.00312022
0.00858152
0.0119627
0.0137927
0.0144114
0.0138237
0.0120296
0.00922269
0.00579511
0.00235382
-0.000355638
-0.00174049
-0.00161582
-0.000181956
0.00205114
0.00417857
0.00507777
0.00408197
0.00162185
-0.000842148
-0.00179966
-0.000876888
-0.000253431
-9.17924e-05
0.00152052
0.00408193
0.00611943
0.00634763
0.0045562
0.00157303
-0.00140459
-0.00340426
-0.00374804
-0.00198492
0.00184898
0.00703624
0.0124481
0.0170089
0.0199607
0.020954
0.0200353
0.0173188
0.0125019
0.00501588
-0.00487198
-0.015156
-0.022801
-0.0257797
-0.0243021
-0.020117
-0.0150476
-0.0100747
-0.00525084
-0.000280389
0.00454411
0.00785823
0.00797962
0.00436579
-0.00176779
-0.00819502
-0.012899
-0.0149207
-0.0146374
-0.0133513
-0.0122935
-0.0117853
-0.0112488
-0.00983101
-0.00706479
-0.0032802
0.000426614
0.00272115
0.0027222
0.000429724
-0.00327515
-0.00705806
-0.00982298
-0.0112399
-0.0117762
-0.0122847
-0.0133432
-0.0146305
-0.0149151
-0.0128948
-0.00819232
-0.00176655
0.00436562
0.00797817
0.00785571
0.00454081
-0.00028413
-0.00525477
-0.0100786
-0.0150514
-0.0201205
-0.0243051
-0.025782
-0.0228024
-0.0151564
-0.00487157
0.00501685
0.0125031
0.01732
0.0200363
0.0209547
0.0199612
0.0170092
0.0124484
0.00703656
0.00184933
-0.00198457
-0.00374777
-0.00340413
-0.0014046
0.00157293
0.00455611
0.00634761
0.00611947
0.00408197
0.00152051
-9.18309e-05
-0.000253452
0.000248676
0.00117134
0.0029554
0.00507779
0.00634763
0.00587137
0.00369742
0.000644699
-0.00229438
-0.00431904
-0.00468663
-0.00265665
0.0020125
0.00861924
0.0157414
0.0218652
0.0258702
0.0272531
0.0261055
0.0226496
0.0166057
0.00734139
-0.00484738
-0.0176754
-0.0276716
-0.0325032
-0.0323631
-0.0291421
-0.0247241
-0.0199568
-0.0146362
-0.00826987
-0.00120145
0.00485026
0.007708
0.0064686
0.00226604
-0.00257056
-0.00594681
-0.0069944
-0.00634507
-0.00559187
-0.00611808
-0.00813633
-0.0107043
-0.0124706
-0.0125092
-0.0108662
-0.00855199
-0.00693176
-0.00693059
-0.00854852
-0.0108606
-0.0125018
-0.0124618
-0.0106948
-0.00812665
-0.00610884
-0.00558356
-0.006338
-0.00698871
-0.00594254
-0.0025677
0.00226752
0.00646874
0.00770687
0.00484805
-0.00120448
-0.00827341
-0.0146399
-0.0199607
-0.0247279
-0.0291457
-0.0323662
-0.0325056
-0.0276732
-0.0176761
-0.00484728
0.00734197
0.0166064
0.0226503
0.026106
0.0272534
0.0258704
0.0218654
0.0157417
0.00861967
0.00201305
-0.00265607
-0.00468612
-0.00431869
-0.00229424
0.000644672
0.00369733
0.00587131
0.00634761
0.00507778
0.00295537
0.00117129
0.000248649
0.000461518
0.0015563
0.00293638
0.00417866
0.0045562
0.00369742
0.0018949
-0.000212044
-0.00209265
-0.00335607
-0.00334292
-0.00105863
0.00408479
0.0115353
0.0197194
0.0267964
0.0313573
0.0327863
0.0312286
0.0270029
0.019843
0.00904344
-0.00512451
-0.020225
-0.0325138
-0.0394464
-0.0411636
-0.0395672
-0.0364424
-0.0323614
-0.0267618
-0.0189081
-0.00919794
0.000268831
0.0067847
0.00901569
0.00788633
0.00567078
0.00440667
0.00478722
0.00588328
0.00580255
0.00304281
-0.00242942
-0.0092213
-0.015398
-0.0194741
-0.0210742
-0.020973
-0.0204595
-0.0204583
-0.0209694
-0.0210684
-0.0194666
-0.0153892
-0.0092118
-0.00241984
0.00305187
0.00581062
0.00589008
0.00479266
0.00441078
0.00567363
0.00788796
0.00901613
0.006784
0.000267137
-0.0092004
-0.018911
-0.026765
-0.0323646
-0.0364457
-0.0395703
-0.0411665
-0.0394488
-0.0325155
-0.020226
-0.00512493
0.0090434
0.0198431
0.0270029
0.0312285
0.0327862
0.0313573
0.0267965
0.0197197
0.0115358
0.00408547
-0.00105788
-0.00334221
-0.00335553
-0.00209234
-0.000211956
0.00189485
0.00369733
0.00455611
0.00417857
0.00293627
0.0015562
0.000461475
0.00044003
0.00126546
0.0018862
0.00205128
0.00157303
0.000644699
-0.000212044
-0.00061274
-0.000610459
-0.000369512
0.000540507
0.00325317
0.00866453
0.0164298
0.024945
0.0321736
0.0365225
0.0373291
0.0348232
0.0294376
0.0209563
0.00865226
-0.0072251
-0.0241922
-0.0384052
-0.0472363
-0.0507881
-0.0509063
-0.0491896
-0.0458602
-0.0399526
-0.03048
-0.0179059
-0.00471057
0.00588155
0.0120897
0.0145608
0.0154219
0.016581
0.0185199
0.0200067
0.0188653
0.0135045
0.00410504
-0.00745873
-0.0186446
-0.0273745
-0.0327863
-0.0353334
-0.0361599
-0.0361588
-0.03533
-0.0327809
-0.0273674
-0.0186363
-0.00744981
0.00411398
0.0135129
0.0188728
0.0200129
0.0185248
0.0165847
0.0154245
0.0145624
0.0120904
0.00588128
-0.00471162
-0.0179076
-0.030482
-0.0399549
-0.0458626
-0.0491921
-0.0509088
-0.0507906
-0.0472386
-0.0384071
-0.0241937
-0.00722612
0.00865157
0.0209557
0.0294371
0.0348227
0.0373288
0.0365224
0.0321737
0.0249453
0.0164303
0.00866518
0.00325391
0.000541251
-0.00036887
-0.000609997
-0.000612482
-0.000211956
0.000644672
0.00157293
0.00205113
0.00188602
0.00126532
0.000439971
0.000347717
0.000803155
0.000655851
-0.000181832
-0.00140459
-0.00229438
-0.00209265
-0.000610459
0.00157719
0.00374943
0.00600625
0.00945166
0.0151484
0.0229209
0.0311988
0.0378611
0.0412348
0.0406814
0.0365546
0.0294388
0.0192401
0.00531208
-0.0120583
-0.0303988
-0.0459228
-0.0560643
-0.0609469
-0.0623562
-0.0616864
-0.058799
-0.0523356
-0.0410879
-0.0256029
-0.00871236
0.00589701
0.0160257
0.0220278
0.0258547
0.0292704
0.032555
0.0342124
0.0318396
0.0237988
0.0104889
-0.00576099
-0.0218393
-0.0351142
-0.0442645
-0.049426
-0.0515832
-0.0515822
-0.0494231
-0.0442599
-0.0351081
-0.0218321
-0.00575323
0.0104966
0.0238061
0.031846
0.0342177
0.0325592
0.0292736
0.025857
0.0220294
0.0160266
0.00589729
-0.00871263
-0.0256036
-0.0410889
-0.0523368
-0.0588004
-0.061688
-0.0623581
-0.0609491
-0.0560666
-0.045925
-0.0304007
-0.0120598
0.0053109
0.0192391
0.0294381
0.036554
0.0406811
0.0412348
0.0378612
0.031199
0.0229212
0.0151488
0.00945216
0.00600682
0.00375004
0.00157776
-0.000609998
-0.00209234
-0.00229425
-0.00140461
-0.000181961
0.000655663
0.00080299
0.00034765
0.000313234
0.000568143
-7.57342e-05
-0.00161578
-0.00340426
-0.00431904
-0.00335607
-0.000369512
0.00374943
0.00785043
0.0116661
0.0160949
0.0221732
0.0297988
0.0374611
0.0430509
0.044914
0.0424964
0.0362993
0.027077
0.0149125
-0.000663591
-0.0192522
-0.0384166
-0.0545486
-0.0652751
-0.0708139
-0.0729148
-0.07278
-0.0699317
-0.0626558
-0.0495671
-0.0313079
-0.0110126
0.00724893
0.0209094
0.0300395
0.0364147
0.041665
0.0458997
0.0474236
0.0436961
0.033093
0.0162221
-0.00419383
-0.0245514
-0.0417515
-0.0541068
-0.0615085
-0.0648097
-0.064809
-0.0615065
-0.0541035
-0.0417471
-0.0245461
-0.00418801
0.0162281
0.0330987
0.0437012
0.047428
0.0459033
0.0416679
0.036417
0.0300414
0.0209109
0.00725008
-0.0110119
-0.0313076
-0.0495671
-0.0626561
-0.0699323
-0.0727811
-0.0729163
-0.0708159
-0.0652774
-0.0545509
-0.0384187
-0.0192539
-0.000664964
0.0149114
0.0270762
0.0362988
0.0424962
0.044914
0.043051
0.0374611
0.0297988
0.0221732
0.016095
0.0116663
0.00785089
0.00375004
-0.000368872
-0.00335554
-0.0043187
-0.00340414
-0.00161583
-7.58831e-05
0.000567994
0.000313173
0.000378397
0.000710541
4.02507e-06
-0.00174055
-0.00374804
-0.00468663
-0.00334292
0.000540507
0.00600625
0.0116661
0.0169064
0.022281
0.0286229
0.0358162
0.0424484
0.0465342
0.0465457
0.0420667
0.0337411
0.0224639
0.00848658
-0.0084497
-0.0277945
-0.0471633
-0.0632112
-0.0738568
-0.0794689
-0.0817789
-0.0818081
-0.078764
-0.0706146
-0.0558312
-0.0351458
-0.0119306
0.00945557
0.0261422
0.0379318
0.0464158
0.053091
0.0579192
0.0590676
0.053947
0.0410119
0.021071
-0.00282749
-0.0266785
-0.0470141
-0.0618884
-0.0710399
-0.0752364
-0.0752362
-0.0710392
-0.0618871
-0.0470123
-0.0266761
-0.00282445
0.0210744
0.0410154
0.0539505
0.0590709
0.0579224
0.053094
0.0464187
0.0379346
0.026145
0.00945799
-0.0119287
-0.0351444
-0.0558304
-0.0706144
-0.0787643
-0.081809
-0.0817804
-0.0794709
-0.0738591
-0.0632136
-0.0471654
-0.0277963
-0.00845101
0.00848566
0.0224633
0.0337408
0.0420667
0.0465458
0.0465342
0.0424483
0.0358159
0.0286224
0.0222807
0.0169063
0.0116663
0.00600682
0.000541247
-0.00334221
-0.00468612
-0.00374778
-0.0017405
3.94581e-06
0.000710435
0.00037835
0.000524551
0.00120175
0.000931561
-0.000355776
-0.00198492
-0.00265665
-0.00105863
0.00325317
0.00945166
0.0160949
0.022281
0.0281415
0.0341937
0.0402757
0.0451562
0.0471226
0.0449065
0.0382922
0.0280496
0.0151436
-8.33753e-05
-0.017727
-0.0371079
-0.0559286
-0.0711729
-0.0811172
-0.0863143
-0.0884815
-0.0884675
-0.0851925
-0.0763393
-0.0602487
-0.0377139
-0.012262
0.0115724
0.0307005
0.0446783
0.0548955
0.0626993
0.067914
0.0686084
0.062207
0.0472907
0.0248617
-0.00177655
-0.0283129
-0.0510043
-0.0677344
-0.0781624
-0.0830119
-0.0830122
-0.0781632
-0.0677356
-0.0510055
-0.0283137
-0.00177681
0.0248621
0.0472918
0.0622087
0.0686107
0.0679168
0.0627027
0.0548993
0.0446825
0.0307047
0.0115762
-0.0122588
-0.0377116
-0.0602473
-0.0763388
-0.0851928
-0.0884685
-0.0884831
-0.0863163
-0.0811194
-0.071175
-0.0559305
-0.0371094
-0.0177281
-8.41331e-05
0.0151431
0.0280494
0.0382922
0.0449066
0.0471225
0.0451559
0.0402751
0.034193
0.0281409
0.0222807
0.016095
0.00945215
0.00325391
-0.00105788
-0.00265607
-0.00198457
-0.000355643
0.000931558
0.0012017
0.000524525
0.000699659
0.00189379
0.00249903
0.00235363
0.00184898
0.0020125
0.00408479
0.00866453
0.0151484
0.0221732
0.0286229
0.0341937
0.0390466
0.0429932
0.0450984
0.0440927
0.0391212
0.0302515
0.0183732
0.0044417
-0.0112206
-0.0286466
-0.0471036
-0.0644462
-0.078048
-0.0865899
-0.0908268
-0.0924667
-0.0922099
-0.0887376
-0.0794892
-0.0626793
-0.0391124
-0.0123656
0.0129875
0.033756
0.0492986
0.0607992
0.0694473
0.0749399
0.0752714
0.0679058
0.0515663
0.0274215
-0.00105465
-0.0293589
-0.0535719
-0.0714767
-0.0827017
-0.0879577
-0.0879585
-0.0827039
-0.0714799
-0.0535757
-0.0293627
-0.00105802
0.027419
0.051565
0.0679058
0.0752726
0.0749425
0.0694509
0.0608038
0.0493038
0.0337612
0.0129924
-0.0123616
-0.0391095
-0.0626777
-0.0794887
-0.0887379
-0.0922108
-0.0924681
-0.0908285
-0.0865916
-0.0780496
-0.0644477
-0.0471048
-0.0286475
-0.0112212
0.00444124
0.018373
0.0302515
0.0391212
0.0440925
0.0450979
0.0429924
0.0390458
0.034193
0.0286224
0.0221731
0.0151488
0.00866518
0.00408547
0.00201305
0.00184933
0.00235381
0.0024991
0.00189379
0.000699654
0.000846283
0.00258715
0.00431438
0.0057949
0.00703624
0.00861924
0.0115353
0.0164298
0.0229209
0.0297988
0.0358162
0.0402757
0.0429932
0.043791
0.0421328
0.0373412
0.0291155
0.0178924
0.00469134
-0.00959947
-0.0247771
-0.0409221
-0.0573491
-0.0721511
-0.0831581
-0.0894916
-0.0921177
-0.092746
-0.0919756
-0.0883286
-0.0790684
-0.0622916
-0.0387494
-0.0119415
0.0136799
0.0349659
0.0511656
0.0632897
0.0723888
0.0780591
0.0782413
0.0704415
0.0535027
0.0286983
-0.000441919
-0.0293628
-0.0540857
-0.0723634
-0.0838319
-0.0892118
-0.0892129
-0.0838349
-0.072368
-0.0540913
-0.0293687
-0.000447485
0.0286936
0.0534995
0.0704399
0.0782415
0.0780611
0.0723923
0.0632944
0.051171
0.0349715
0.013685
-0.0119373
-0.0387464
-0.0622898
-0.0790675
-0.0883285
-0.091976
-0.0927467
-0.0921186
-0.0894926
-0.083159
-0.072152
-0.05735
-0.040923
-0.0247779
-0.0096001
0.00469091
0.0178921
0.0291152
0.0373407
0.0421322
0.0437902
0.0429924
0.0402751
0.0358159
0.0297988
0.0229212
0.0164303
0.0115358
0.00861968
0.00703656
0.00579511
0.0043145
0.0025872
0.000846296
0.000939576
0.00314727
0.0059963
0.00922244
0.0124481
0.0157414
0.0197194
0.024945
0.0311988
0.0374611
0.0424484
0.0451562
0.0450984
0.0421328
0.0361728
0.0272146
0.0155961
0.00217689
-0.0118837
-0.0257973
-0.039548
-0.0533534
-0.0666721
-0.0779254
-0.0854626
-0.0888668
-0.0893068
-0.0884955
-0.0869839
-0.0832358
-0.0744304
-0.0585639
-0.0362564
-0.0107858
0.0136834
0.0341949
0.0499933
0.0619736
0.0710821
0.0768493
0.0771871
0.0696361
0.0531089
0.0288902
0.000432961
-0.0278061
-0.0519139
-0.0696894
-0.0808098
-0.0860164
-0.0860175
-0.080813
-0.0696944
-0.0519201
-0.0278128
0.000426381
0.0288844
0.0531044
0.0696333
0.0771861
0.0768502
0.0710847
0.0619776
0.0499982
0.0342001
0.0136883
-0.0107817
-0.0362533
-0.0585618
-0.074429
-0.0832349
-0.0869834
-0.0884953
-0.0893067
-0.0888669
-0.0854629
-0.077926
-0.0666729
-0.0533544
-0.039549
-0.0257982
-0.0118843
0.00217647
0.0155958
0.0272141
0.0361721
0.0421322
0.0450979
0.0451559
0.0424483
0.0374611
0.031199
0.0249453
0.0197197
0.0157417
0.0124484
0.00922269
0.0059965
0.00314738
0.000939612
0.000997951
0.00355735
0.00732
0.0120292
0.0170089
0.0218652
0.0267964
0.0321736
0.0378611
0.0430509
0.0465342
0.0471226
0.0440927
0.0373412
0.0272146
0.0143747
-0.000206341
-0.0152547
-0.0294875
-0.0422397
-0.0537194
-0.0643375
-0.0737665
-0.0808238
-0.0844159
-0.0845771
-0.0826343
-0.0802698
-0.0780162
-0.0743779
-0.0665522
-0.0524597
-0.0325097
-0.00961406
0.0124999
0.0311908
0.0457805
0.0570857
0.0659623
0.0718922
0.0727771
0.0661806
0.051026
0.0285142
0.00190679
-0.0245556
-0.0471242
-0.0637016
-0.0740215
-0.0788352
-0.0788362
-0.0740245
-0.0637062
-0.04713
-0.0245622
0.00190013
0.0285081
0.0510208
0.0661768
0.0727749
0.0718917
0.0659636
0.0570884
0.0457842
0.031195
0.0125042
-0.00961015
-0.0325064
-0.0524571
-0.06655
-0.0743761
-0.0780148
-0.0802687
-0.0826335
-0.0845767
-0.0844159
-0.0808243
-0.0737674
-0.0643386
-0.0537206
-0.0422407
-0.0294882
-0.0152552
-0.000206718
0.0143742
0.0272141
0.0373407
0.0440925
0.0471225
0.0465342
0.043051
0.0378612
0.0321738
0.0267965
0.0218655
0.0170093
0.0120296
0.00732034
0.00355757
0.000998024
0.00104902
0.00384414
0.00817495
0.0138231
0.0199607
0.0258702
0.0313573
0.0365225
0.0412348
0.044914
0.0465457
0.0449065
0.0391212
0.0291155
0.0155961
-0.000206341
-0.0167817
-0.0325251
-0.0460873
-0.0569539
-0.0655688
-0.0725563
-0.0778382
-0.0806586
-0.0804755
-0.0777179
-0.0737764
-0.0702184
-0.0675434
-0.064368
-0.058005
-0.0463324
-0.0294842
-0.00988492
0.00928755
0.025777
0.0390043
0.0496823
0.0585316
0.0649588
0.066849
0.0617715
0.0486131
0.0284305
0.00423959
-0.0199791
-0.040671
-0.0558466
-0.0652687
-0.0696559
-0.0696567
-0.0652712
-0.0558506
-0.0406761
-0.019985
0.00423335
0.0284244
0.0486076
0.061767
0.0668458
0.064957
0.0585314
0.0496835
0.0390067
0.0257803
0.00929123
-0.0098811
-0.0294805
-0.0463289
-0.0580019
-0.0643653
-0.0675411
-0.0702166
-0.0737752
-0.0777173
-0.0804756
-0.0806593
-0.0778392
-0.0725576
-0.06557
-0.056955
-0.046088
-0.0325255
-0.0167821
-0.000206719
0.0155958
0.0291152
0.0391212
0.0449066
0.0465458
0.044914
0.0412348
0.0365224
0.0313573
0.0258704
0.0199612
0.0138237
0.00817552
0.00384453
0.00104915
0.00109679
0.00399865
0.00848774
0.0144105
0.020954
0.0272531
0.0327863
0.0373291
0.0406814
0.0424964
0.0420667
0.0382922
0.0302515
0.0178924
0.00217689
-0.0152547
-0.0325251
-0.0478428
-0.0598824
-0.0683045
-0.073775
-0.0771239
-0.0785311
-0.0776651
-0.0744882
-0.0697263
-0.0647031
-0.0607472
-0.0582661
-0.0560191
-0.0515078
-0.0426051
-0.0291305
-0.0129365
0.00341938
0.0180839
0.0305307
0.0412722
0.0507845
0.058319
0.0616998
0.0584713
0.0474554
0.0295548
0.00755873
-0.0147713
-0.0340184
-0.0482279
-0.0571072
-0.0612671
-0.0612678
-0.0571092
-0.0482311
-0.0340227
-0.0147763
0.00755321
0.0295491
0.0474499
0.0584663
0.0616956
0.0583159
0.0507828
0.0412718
0.0305317
0.018086
0.00342244
-0.0129328
-0.0291265
-0.042601
-0.0515039
-0.0560155
-0.058263
-0.0607448
-0.0647016
-0.0697256
-0.0744883
-0.0776658
-0.0785322
-0.0771253
-0.0737764
-0.0683057
-0.0598833
-0.0478434
-0.0325255
-0.0152552
0.00217646
0.0178921
0.0302515
0.0382922
0.0420667
0.0424962
0.0406811
0.0373288
0.0327862
0.0272534
0.0209547
0.0144114
0.00848861
0.00399924
0.00109699
0.00112194
0.00397697
0.00822225
0.0137915
0.0200353
0.0261055
0.0312286
0.0348232
0.0365546
0.0362993
0.0337411
0.0280496
0.0183732
0.00469134
-0.0118837
-0.0294875
-0.0460873
-0.0598824
-0.0696664
-0.0752793
-0.0775663
-0.0775343
-0.0756218
-0.0719085
-0.0667974
-0.0612026
-0.0562513
-0.0529099
-0.0514152
-0.05066
-0.048372
-0.0424445
-0.032361
-0.019347
-0.00529853
0.00832296
0.0209656
0.0328105
0.0439474
0.0533561
0.0587203
0.0575083
0.048456
0.0323296
0.0117528
-0.00963681
-0.0284379
-0.0425918
-0.0516179
-0.0559202
-0.0559206
-0.0516192
-0.042594
-0.028441
-0.00964057
0.0117484
0.0323247
0.0484509
0.0575032
0.0587154
0.0533519
0.0439442
0.0328084
0.020965
0.00832372
-0.00529645
-0.0193438
-0.0323571
-0.0424401
-0.0483674
-0.0506556
-0.0514113
-0.0529069
-0.0562492
-0.0612015
-0.0667973
-0.071909
-0.0756228
-0.0775355
-0.0775676
-0.0752806
-0.0696675
-0.0598833
-0.046088
-0.0294882
-0.0118844
0.0046909
0.018373
0.0280494
0.0337408
0.0362988
0.036554
0.0348228
0.0312285
0.026106
0.0200363
0.0137927
0.00822337
0.00397772
0.0011222
0.00107535
0.00366675
0.00728332
0.0119613
0.0173188
0.0226496
0.0270029
0.0294376
0.0294388
0.027077
0.0224639
0.0151436
0.0044417
-0.00959947
-0.0257973
-0.0422397
-0.0569539
-0.0683045
-0.0752793
-0.0778682
-0.0770192
-0.0738737
-0.0691348
-0.0632927
-0.0571424
-0.0517004
-0.0478084
-0.0459927
-0.0462595
-0.0476066
-0.0479873
-0.045314
-0.0387097
-0.0287314
-0.0165862
-0.00335524
0.0103226
0.0241931
0.037838
0.0498524
0.0576895
0.0586787
0.0514366
0.0365974
0.0166642
-0.00475949
-0.0241565
-0.0392084
-0.049101
-0.0539294
-0.0539296
-0.0491014
-0.0392092
-0.0241578
-0.00476137
0.0166616
0.036594
0.0514325
0.058674
0.0576844
0.0498473
0.0378334
0.0241894
0.0103201
-0.00335632
-0.0165857
-0.0287295
-0.0387066
-0.04531
-0.0479825
-0.0476016
-0.0462548
-0.0459887
-0.0478055
-0.0516986
-0.0571415
-0.0632924
-0.0691351
-0.0738745
-0.0770203
-0.0778695
-0.0752806
-0.0683057
-0.056955
-0.0422407
-0.0257982
-0.00960011
0.00444123
0.0151431
0.0224633
0.0270762
0.0294381
0.0294371
0.0270029
0.0226503
0.01732
0.0119627
0.00728456
0.00366758
0.00107564
0.000852397
0.00279532
0.00532348
0.00858016
0.0125019
0.0166057
0.019843
0.0209563
0.0192401
0.0149125
0.00848658
-8.33753e-05
-0.0112206
-0.0247771
-0.039548
-0.0537194
-0.0655688
-0.073775
-0.0775663
-0.0770192
-0.0730812
-0.0669732
-0.0596751
-0.0521058
-0.0454235
-0.0406899
-0.0384222
-0.0386943
-0.0412711
-0.0452359
-0.0487453
-0.0497022
-0.0468308
-0.0399873
-0.0296773
-0.01661
-0.00153098
0.0148338
0.0315013
0.0466182
0.0573508
0.0608417
0.055545
0.0419274
0.0223615
0.000447628
-0.0201034
-0.0366035
-0.0477949
-0.0533842
-0.0533839
-0.0477942
-0.0366026
-0.0201025
0.000448075
0.0223611
0.041926
0.0555424
0.0608379
0.057346
0.0466128
0.0314956
0.0148285
-0.00153548
-0.0166133
-0.0296792
-0.0399875
-0.0468293
-0.0496992
-0.048741
-0.0452307
-0.0412658
-0.0386895
-0.0384183
-0.0406871
-0.0454215
-0.0521045
-0.0596744
-0.0669731
-0.0730818
-0.0770203
-0.0775676
-0.0737764
-0.06557
-0.0537206
-0.039549
-0.0247779
-0.0112213
-8.41365e-05
0.00848566
0.0149114
0.0192391
0.0209557
0.0198431
0.0166065
0.0125031
0.00858153
0.00532467
0.0027961
0.000852663
0.000325711
0.00101978
0.00187102
0.00311915
0.00501588
0.00734139
0.00904344
0.00865226
0.00531208
-0.000663591
-0.0084497
-0.017727
-0.0286466
-0.0409221
-0.0533534
-0.0643375
-0.0725563
-0.0771239
-0.0775343
-0.0738737
-0.0669732
-0.058068
-0.0484219
-0.0393972
-0.0324824
-0.0287278
-0.0283071
-0.0308722
-0.035982
-0.0428155
-0.0497168
-0.0545466
-0.0555959
-0.0520101
-0.043618
-0.0307834
-0.0143547
0.00449733
0.0242468
0.042604
0.0564581
0.0627632
0.0597772
0.0477397
0.028834
0.00662158
-0.0149985
-0.0329423
-0.0454626
-0.0518377
-0.0518371
-0.0454608
-0.0329398
-0.0149956
0.00662422
0.0288358
0.0477404
0.0597765
0.0627609
0.0564543
0.0425989
0.0242408
0.00449098
-0.0143609
-0.0307888
-0.0436222
-0.0520128
-0.0555966
-0.0545452
-0.0497135
-0.0428107
-0.0359766
-0.0308669
-0.0283024
-0.0287239
-0.0324792
-0.0393947
-0.04842
-0.058067
-0.0669731
-0.0738744
-0.0775355
-0.0771253
-0.0725576
-0.0643386
-0.0533544
-0.040923
-0.0286475
-0.0177281
-0.00845101
-0.000664964
0.0053109
0.00865156
0.0090434
0.00734197
0.00501686
0.00312023
0.00187194
0.00102038
0.000325918
-0.000515946
-0.00166364
-0.0030077
-0.00424566
-0.00487198
-0.00484738
-0.00512451
-0.0072251
-0.0120583
-0.0192522
-0.0277945
-0.0371079
-0.0471036
-0.0573491
-0.0666721
-0.0737665
-0.0778382
-0.0785311
-0.0756218
-0.0691348
-0.0596751
-0.0484219
-0.0369097
-0.0269332
-0.0202481
-0.0178071
-0.0194001
-0.0242832
-0.0318627
-0.0414534
-0.0516032
-0.0601289
-0.0648872
-0.064345
-0.0577293
-0.0451295
-0.0275053
-0.00641892
0.0161364
0.0375121
0.0543954
0.0636003
0.0631865
0.0531215
0.0353399
0.0133012
-0.00897033
-0.0280379
-0.0416771
-0.0487344
-0.0487336
-0.0416748
-0.0280345
-0.00896632
0.0133052
0.0353434
0.0531239
0.0631875
0.0635997
0.0543929
0.037508
0.0161308
-0.00642554
-0.0275124
-0.0451365
-0.0577356
-0.0643498
-0.06489
-0.0601293
-0.0516013
-0.0414496
-0.0318578
-0.0242779
-0.019395
-0.0178024
-0.0202439
-0.0269295
-0.0369068
-0.04842
-0.0596744
-0.0691351
-0.0756227
-0.0785322
-0.0778392
-0.0737674
-0.0666729
-0.05735
-0.0471048
-0.0371094
-0.0277963
-0.0192539
-0.0120598
-0.00722613
-0.00512494
-0.00484729
-0.00487157
-0.00424515
-0.00300725
-0.00166333
-0.000515838
-0.00145175
-0.00458018
-0.00816469
-0.011904
-0.015156
-0.0176754
-0.020225
-0.0241922
-0.0303988
-0.0384166
-0.0471633
-0.0559286
-0.0644462
-0.0721511
-0.0779254
-0.0808238
-0.0806586
-0.0776651
-0.0719085
-0.0632927
-0.0521058
-0.0393972
-0.0269332
-0.0168953
-0.0112175
-0.0106445
-0.0145118
-0.0216767
-0.0314353
-0.0432908
-0.0560485
-0.0675338
-0.0752234
-0.0769863
-0.0715659
-0.0588896
-0.0400704
-0.0170172
0.00790453
0.0317982
0.0512553
0.0630279
0.0650091
0.0568956
0.0403617
0.018729
-0.00391819
-0.0238579
-0.0384302
-0.0460708
-0.0460701
-0.0384281
-0.0238547
-0.00391428
0.0187332
0.0403656
0.0568989
0.0650113
0.0630287
0.0512543
0.0317954
0.00789995
-0.0170232
-0.0400774
-0.0588971
-0.0715732
-0.0769924
-0.0752277
-0.0675358
-0.0560481
-0.0432883
-0.0314313
-0.0216719
-0.0145067
-0.0106394
-0.0112127
-0.0168909
-0.0269295
-0.0393947
-0.0521045
-0.0632924
-0.071909
-0.0776658
-0.0806593
-0.0808243
-0.077926
-0.072152
-0.0644477
-0.0559305
-0.0471654
-0.0384187
-0.0304007
-0.0241937
-0.020226
-0.0176761
-0.0151564
-0.0119043
-0.00816486
-0.00458027
-0.00145178
-0.00211191
-0.00662721
-0.0117886
-0.0173875
-0.022801
-0.0276716
-0.0325138
-0.0384052
-0.0459228
-0.0545486
-0.0632112
-0.0711729
-0.078048
-0.0831581
-0.0854626
-0.0844159
-0.0804755
-0.0744882
-0.0667974
-0.0571424
-0.0454235
-0.0324824
-0.0202481
-0.0112175
-0.00741193
-0.00927287
-0.0156169
-0.0248878
-0.0362915
-0.0495629
-0.0638361
-0.0770468
-0.0864062
-0.0893103
-0.0841583
-0.0708433
-0.0506936
-0.0259308
0.000807647
0.0264966
0.0477423
0.0613173
0.0650029
0.0582714
0.0425815
0.0211332
-0.00196228
-0.0227576
-0.0382131
-0.0463977
-0.0463973
-0.0382118
-0.0227555
-0.00195958
0.0211364
0.0425849
0.0582746
0.0650055
0.0613189
0.0477424
0.0264951
0.000804406
-0.0259356
-0.0506997
-0.0708502
-0.0841653
-0.0893168
-0.0864114
-0.07705
-0.0638373
-0.0495619
-0.0362888
-0.0248838
-0.0156123
-0.00926789
-0.00740688
-0.0112127
-0.0202439
-0.0324792
-0.0454215
-0.0571415
-0.0667973
-0.0744883
-0.0804756
-0.0844159
-0.0854629
-0.083159
-0.0780496
-0.0711751
-0.0632136
-0.054551
-0.045925
-0.0384072
-0.0325156
-0.0276732
-0.0228024
-0.0173887
-0.0117895
-0.00662773
-0.00211208
-0.00223518
-0.00703657
-0.0126432
-0.0190391
-0.0257797
-0.0325032
-0.0394464
-0.0472363
-0.0560643
-0.0652751
-0.0738568
-0.0811172
-0.0865899
-0.0894916
-0.0888668
-0.0845771
-0.0777179
-0.0697263
-0.0612026
-0.0517004
-0.0406899
-0.0287278
-0.0178071
-0.0106445
-0.00927287
-0.0137875
-0.0224797
-0.0333947
-0.0456626
-0.0592647
-0.0737188
-0.0871867
-0.0967677
-0.09954
-0.0937015
-0.0792269
-0.0577082
-0.0316354
-0.00380549
0.022756
0.0447805
0.059144
0.0635786
0.0573922
0.0418898
0.0201898
-0.00357819
-0.0252937
-0.0416103
-0.0503037
-0.0503036
-0.0416101
-0.0252931
-0.0035772
0.0201914
0.041892
0.0573947
0.063581
0.0591459
0.0447814
0.0227556
-0.00380729
-0.0316386
-0.0577128
-0.0792325
-0.0937077
-0.0995462
-0.0967732
-0.087191
-0.0737214
-0.0592654
-0.0456614
-0.033392
-0.0224758
-0.0137829
-0.0092679
-0.0106394
-0.0178024
-0.0287239
-0.040687
-0.0516986
-0.0612015
-0.0697256
-0.0777173
-0.0845767
-0.0888669
-0.0894926
-0.0865916
-0.0811194
-0.0738591
-0.0652774
-0.0560666
-0.0472386
-0.0394489
-0.0325056
-0.0257821
-0.0190411
-0.0126447
-0.00703752
-0.00223549
-0.00183102
-0.00585137
-0.0108327
-0.0170315
-0.0243021
-0.0323631
-0.0411636
-0.0507881
-0.0609469
-0.0708139
-0.0794689
-0.0863143
-0.0908268
-0.0921177
-0.0893068
-0.0826343
-0.0737764
-0.0647031
-0.0562513
-0.0478084
-0.0384222
-0.0283071
-0.0194001
-0.0145118
-0.0156169
-0.0224797
-0.0329451
-0.0447449
-0.0569698
-0.0698371
-0.0832525
-0.0956809
-0.104254
-0.105892
-0.0987257
-0.0828968
-0.0602726
-0.0335372
-0.00551646
0.0209033
0.0426958
0.0569265
0.0613328
0.0550895
0.0393676
0.0172144
-0.007239
-0.0297557
-0.0467718
-0.0558628
-0.055863
-0.0467724
-0.0297565
-0.00723946
0.0172145
0.0393685
0.055091
0.0613348
0.0569284
0.0426973
0.0209039
-0.00551693
-0.0335389
-0.0602756
-0.082901
-0.0987308
-0.105897
-0.104259
-0.095686
-0.0832563
-0.0698392
-0.0569701
-0.0447435
-0.0329422
-0.0224758
-0.0156123
-0.0145067
-0.019395
-0.0283024
-0.0384183
-0.0478055
-0.0562492
-0.0647015
-0.0737752
-0.0826335
-0.0893067
-0.0921186
-0.0908285
-0.0863163
-0.0794709
-0.0708159
-0.0609491
-0.0507907
-0.0411665
-0.0323662
-0.0243052
-0.0170342
-0.0108348
-0.00585268
-0.00183146
-0.001106
-0.00370167
-0.00742008
-0.0128236
-0.020117
-0.0291421
-0.0395672