/*--------------------------------*- C++ -*----------------------------------*\
  =========                 |
  \\      /  F ield         | OpenFOAM: The Open Source CFD Toolbox
   \\    /   O peration     | Website:  https://openfoam.org
    \\  /    A nd           | Version:  10
     \\/     M anipulation  |
\*---------------------------------------------------------------------------*/
FoamFile
{
    format      ascii;
    class       volScalarField;
    location    "26";
    object      h;
}
// * * * * * * * * * * * * * * * * * * * * * * * * * * * * * * * * * * * * * //

dimensions      [0 1 0 0 0 0 0];

internalField   nonuniform List<scalar> 
10000
(
-0.00225542
-0.00367981
-0.000464188
0.00263769
0.00208545
-0.000591788
-0.0025311
-0.00277589
-0.00130852
0.00135628
0.00284416
0.000920075
-0.0031465
-0.00634948
-0.00734064
-0.00663694
-0.00566479
-0.00477377
-0.00234078
0.00226083
0.00736248
0.0111928
0.013218
0.0141656
0.0149064
0.0151469
0.0138595
0.0104416
0.00527727
-0.000346607
-0.00497142
-0.00776808
-0.00861029
-0.00801166
-0.00669771
-0.00525855
-0.00411543
-0.00335969
-0.00300445
-0.00291404
-0.00299297
-0.00313903
-0.00329091
-0.00342367
-0.00351441
-0.00357758
-0.00360692
-0.00362359
-0.00362614
-0.00362757
-0.0036276
-0.00362624
-0.00362374
-0.00360713
-0.00357786
-0.00351473
-0.00342404
-0.00329131
-0.00313944
-0.00299337
-0.0029144
-0.00300475
-0.00335989
-0.00411552
-0.00525851
-0.00669755
-0.00801141
-0.00860997
-0.00776771
-0.00497099
-0.000346103
0.00527786
0.0104423
0.01386
0.0151472
0.0149064
0.0141654
0.0132179
0.0111928
0.00736238
0.00226047
-0.00234132
-0.00477403
-0.00566478
-0.00663728
-0.00734149
-0.00635041
-0.00314664
0.000921466
0.0028462
0.00135697
-0.0013097
-0.00277762
-0.00253212
-0.000591396
0.00208735
0.00263966
-0.00046469
-0.00368284
-0.00225728
-0.00367981
-0.00581854
-0.000164489
0.00470209
0.00236156
-0.00333692
-0.00587407
-0.0043657
-0.000910932
0.00300839
0.00428434
-0.000239127
-0.00883794
-0.016663
-0.0203493
-0.0199975
-0.0182445
-0.0149499
-0.00633464
0.0080106
0.0234178
0.0349622
0.0410137
0.0436616
0.0451748
0.0447868
0.0398668
0.0288055
0.0127922
-0.00437961
-0.0184961
-0.0269788
-0.0293491
-0.0270639
-0.0221919
-0.016638
-0.0116987
-0.00785114
-0.00522465
-0.00352132
-0.00252835
-0.00193665
-0.00160437
-0.00139344
-0.00125197
-0.00114766
-0.00106359
-0.00100336
-0.000959388
-0.000938717
-0.000938728
-0.00095942
-0.00100342
-0.00106367
-0.00114778
-0.00125211
-0.00139362
-0.00160458
-0.0019369
-0.00252862
-0.0035216
-0.00522494
-0.00785142
-0.0116989
-0.0166383
-0.0221922
-0.0270642
-0.0293495
-0.0269791
-0.0184962
-0.00437929
0.0127931
0.0288068
0.0398683
0.0447879
0.0451754
0.043662
0.0410143
0.034963
0.0234181
0.00800981
-0.00633641
-0.0149516
-0.0182454
-0.0199987
-0.0203512
-0.0166646
-0.00883791
-0.000236673
0.00428781
0.00301007
-0.000911886
-0.00436801
-0.00587639
-0.00333742
0.00236437
0.0047059
-0.000164766
-0.00582338
-0.00368285
-0.000464188
-0.000164489
0.00172025
0.00168467
-0.00277575
-0.00744976
-0.00644556
-0.000970805
0.0031415
0.00301215
-0.000540762
-0.00636466
-0.0144294
-0.023508
-0.0299742
-0.0322691
-0.0311128
-0.0240346
-0.00778174
0.0158476
0.0404524
0.0589575
0.0688409
0.0729142
0.0739368
0.0711708
0.0614819
0.0427875
0.0170351
-0.0101072
-0.0324137
-0.0456821
-0.0491061
-0.0448077
-0.0359638
-0.0258407
-0.016506
-0.00907144
-0.00372512
-0.000157079
0.00202052
0.00331943
0.00399014
0.00435303
0.00447964
0.0045298
0.00450373
0.00447755
0.00444063
0.00442437
0.0044244
0.00444074
0.00447772
0.00450397
0.00453011
0.00448001
0.00435347
0.00399063
0.00331997
0.00202107
-0.000156539
-0.00372464
-0.00907105
-0.0165058
-0.0258408
-0.0359643
-0.0448086
-0.0491075
-0.0456838
-0.0324152
-0.0101081
0.0170352
0.0427887
0.0614837
0.0711726
0.0739384
0.0729158
0.0688429
0.0589596
0.0404534
0.0158467
-0.00778452
-0.0240381
-0.0311155
-0.032271
-0.029976
-0.0235091
-0.0144292
-0.00636363
-0.00053904
0.00301465
0.00314399
-0.000970196
-0.00644796
-0.00745296
-0.00277622
0.00168687
0.00172188
-0.000164759
-0.000464684
0.00263769
0.00470209
0.00168467
-0.00284599
-0.0062424
-0.00742348
-0.00496154
0.000372566
0.00358095
0.000303183
-0.00697792
-0.0133891
-0.0196682
-0.0279554
-0.0364497
-0.0423126
-0.041432
-0.0292617
-0.00584698
0.0247644
0.0556866
0.0792263
0.0928033
0.098614
0.0990091
0.0938514
0.0803413
0.0564212
0.0243397
-0.00971554
-0.0384865
-0.0565057
-0.062525
-0.0585304
-0.0484151
-0.0362613
-0.0247734
-0.0156772
-0.00912965
-0.00499355
-0.00255553
-0.00130676
-0.000752162
-0.00056392
-0.000579501
-0.000638894
-0.00074022
-0.000805145
-0.000866515
-0.000889615
-0.000889624
-0.00086655
-0.000805195
-0.000740289
-0.000638966
-0.00057958
-0.000563981
-0.000752207
-0.00130676
-0.00255548
-0.00499343
-0.00912946
-0.015677
-0.0247732
-0.0362613
-0.0484153
-0.0585311
-0.0625261
-0.0565071
-0.0384878
-0.00971609
0.0243402
0.0564229
0.0803438
0.0938539
0.0990113
0.0986162
0.0928056
0.0792286
0.0556879
0.0247635
-0.00585013
-0.0292664
-0.0414366
-0.0423155
-0.036451
-0.0279558
-0.019668
-0.0133892
-0.00697744
0.000306023
0.00358505
0.000374635
-0.00496293
-0.00742683
-0.00624523
-0.00284661
0.00168688
0.00470591
0.00263967
0.00208545
0.00236156
-0.00277575
-0.0062424
-0.00396931
-0.000898429
-0.00135633
-0.00258478
-0.00332495
-0.00709279
-0.0134043
-0.0185971
-0.0233075
-0.0305336
-0.0410951
-0.0500301
-0.0476151
-0.0297866
-0.000267254
0.0354189
0.0699236
0.0967787
0.113698
0.12093
0.120254
0.112357
0.0954256
0.0680559
0.0321752
-0.00674496
-0.0410854
-0.0646131
-0.0750497
-0.0734386
-0.0639113
-0.0506518
-0.0372993
-0.0260009
-0.0173635
-0.0114914
-0.00755811
-0.00521498
-0.00367302
-0.00278247
-0.00212786
-0.00171823
-0.00138577
-0.00117104
-0.00101688
-0.000946345
-0.000946358
-0.00101693
-0.00117112
-0.00138591
-0.00171842
-0.00212812
-0.00278281
-0.00367344
-0.0052155
-0.00755869
-0.0114921
-0.0173642
-0.0260017
-0.0373
-0.0506526
-0.0639124
-0.0734398
-0.0750511
-0.0646144
-0.0410862
-0.00674471
0.0321768
0.0680587
0.0954291
0.11236
0.120257
0.120933
0.1137
0.0967808
0.0699251
0.0354186
-0.000270118
-0.0297918
-0.0476218
-0.0500352
-0.0410966
-0.0305327
-0.0233063
-0.0185966
-0.0134039
-0.00709144
-0.00332322
-0.00258387
-0.00135539
-0.00089754
-0.00397059
-0.00624521
-0.00277621
0.00236437
0.00208734
-0.000591788
-0.00333692
-0.00744976
-0.00742348
-0.000898429
0.00464439
0.00221207
-0.00495744
-0.0113598
-0.0162843
-0.0206169
-0.0247895
-0.0289044
-0.0348677
-0.0447327
-0.0518164
-0.0454801
-0.0237026
0.00952685
0.0479788
0.0843111
0.113945
0.133222
0.140002
0.135732
0.12227
0.100301
0.0700792
0.032895
-0.00720277
-0.0433592
-0.0696258
-0.0824328
-0.0820796
-0.0722562
-0.0571179
-0.041308
-0.0271534
-0.0162564
-0.00853671
-0.00353744
-0.000598692
0.00110673
0.00188693
0.00232891
0.00241646
0.00249044
0.00243806
0.00243661
0.00240808
0.00240809
0.00243665
0.00243814
0.00249056
0.0024166
0.00232909
0.00188713
0.00110698
-0.00059843
-0.00353713
-0.0085364
-0.0162561
-0.0271531
-0.0413079
-0.057118
-0.0722568
-0.0820807
-0.0824344
-0.0696277
-0.0433608
-0.00720357
0.0328955
0.0700808
0.100303
0.122273
0.135735
0.140005
0.133226
0.113948
0.0843134
0.0479796
0.0095247
-0.0237078
-0.0454875
-0.0518231
-0.0447355
-0.0348668
-0.0289028
-0.0247887
-0.0206171
-0.0162851
-0.0113603
-0.00495656
0.00221557
0.00464883
-0.000897525
-0.00742681
-0.00745297
-0.00333745
-0.000591412
-0.0025311
-0.00587407
-0.00644556
-0.00496154
-0.00135633
0.00221207
0.00107408
-0.00654731
-0.0163181
-0.0226757
-0.0268477
-0.032612
-0.0381241
-0.0421326
-0.0456121
-0.0442809
-0.0332583
-0.01113
0.0212078
0.0584006
0.0952858
0.127712
0.149091
0.15538
0.147063
0.127462
0.100677
0.0688822
0.0326986
-0.00557842
-0.0412703
-0.06918
-0.0845925
-0.0871074
-0.0787653
-0.0639054
-0.0471985
-0.0315358
-0.0193093
-0.010328
-0.0048031
-0.00144356
0.000118391
0.000820914
0.000921546
0.000810293
0.000609537
0.000409328
0.000269852
0.000190092
0.000190078
0.000269844
0.000409299
0.00060953
0.00081029
0.000921594
0.00082101
0.000118576
-0.00144326
-0.00480269
-0.0103274
-0.0193086
-0.031535
-0.0471978
-0.0639049
-0.0787653
-0.087108
-0.0845937
-0.0691817
-0.041272
-0.00557986
0.0326979
0.0688825
0.100678
0.127464
0.147067
0.155385
0.149095
0.127716
0.095288
0.0584012
0.021206
-0.0111345
-0.0332642
-0.0442869
-0.0456161
-0.0421339
-0.0381243
-0.0326119
-0.0268479
-0.0226771
-0.0163187
-0.00654503
0.0010783
0.00221557
-0.00135538
-0.00496293
-0.00644798
-0.00587641
-0.00253212
-0.00277589
-0.0043657
-0.000970805
0.000372566
-0.00258478
-0.00495744
-0.00654731
-0.012757
-0.0215887
-0.0265373
-0.0304854
-0.0382877
-0.0459288
-0.0480358
-0.0425467
-0.0304207
-0.0144995
0.00649655
0.0340368
0.0661519
0.101374
0.134671
0.157936
0.165453
0.155694
0.132993
0.103782
0.0716755
0.0370616
0.000486763
-0.0360104
-0.0674753
-0.0885931
-0.0972027
-0.0931945
-0.080796
-0.0638097
-0.0466099
-0.0316426
-0.0198509
-0.0116259
-0.00586102
-0.00242812
-3.55976e-05
0.00122884
0.00221773
0.00269685
0.00312193
0.00329978
0.00342353
0.00342353
0.0032998
0.00312196
0.00269688
0.00221774
0.00122882
-3.5657e-05
-0.00242828
-0.00586122
-0.0116262
-0.0198513
-0.0316432
-0.0466106
-0.0638106
-0.0807973
-0.0931961
-0.0972047
-0.0885951
-0.0674772
-0.0360118
0.000486165
0.0370618
0.0716766
0.103784
0.132996
0.155699
0.165459
0.157941
0.134674
0.101375
0.0661515
0.0340352
0.00649366
-0.0145032
-0.0304251
-0.042552
-0.0480405
-0.0459313
-0.0382877
-0.0304842
-0.0265375
-0.0215894
-0.0127556
-0.00654505
-0.00495656
-0.00258387
0.000374625
-0.000970207
-0.004368
-0.00277761
-0.00130852
-0.000910932
0.0031415
0.00358095
-0.00332495
-0.0113598
-0.0163181
-0.0215887
-0.0272173
-0.0307412
-0.0354178
-0.0434514
-0.0504026
-0.048865
-0.0342633
-0.0120291
0.00945713
0.0296005
0.050791
0.0758837
0.105954
0.135924
0.158274
0.16553
0.15473
0.130486
0.100425
0.0697148
0.0391589
0.00738974
-0.0261977
-0.0576537
-0.0822945
-0.0955993
-0.0962391
-0.0869534
-0.0709872
-0.0536805
-0.037261
-0.0243305
-0.0146439
-0.00822452
-0.004147
-0.00166401
-0.000316317
0.000545108
0.000920399
0.00122205
0.00131203
0.00139034
0.00139036
0.00131204
0.00122208
0.000920406
0.000545136
-0.000316328
-0.00166401
-0.00414706
-0.00822459
-0.014644
-0.0243307
-0.0372613
-0.053681
-0.0709878
-0.0869544
-0.0962404
-0.0956009
-0.0822961
-0.057655
-0.0261985
0.00738951
0.039159
0.0697154
0.100426
0.130489
0.154734
0.165535
0.158279
0.135927
0.105955
0.0758833
0.0507905
0.0296004
0.00945647
-0.0120318
-0.0342694
-0.0488726
-0.0504078
-0.0434523
-0.0354158
-0.0307396
-0.0272177
-0.0215894
-0.0163187
-0.0113603
-0.00332322
0.00358504
0.003144
-0.000911867
-0.00130969
0.00135628
0.00300839
0.00301215
0.000303183
-0.00709279
-0.0162843
-0.0226757
-0.0265373
-0.0307412
-0.0373203
-0.0450145
-0.0501423
-0.0503642
-0.0409806
-0.0183313
0.010116
0.0346588
0.0532383
0.0689801
0.087533
0.110691
0.134828
0.153412
0.158351
0.14621
0.120778
0.0903585
0.0617126
0.0365902
0.0119739
-0.01499
-0.0429233
-0.0681856
-0.084646
-0.0901597
-0.0846998
-0.0716677
-0.0556063
-0.0395581
-0.0266853
-0.0167964
-0.0107344
-0.00682124
-0.00509041
-0.00414922
-0.00403417
-0.00402337
-0.00421053
-0.00431543
-0.00440158
-0.0044016
-0.00431555
-0.00421069
-0.00402361
-0.00403443
-0.0041495
-0.00509067
-0.00682142
-0.0107345
-0.0167963
-0.0266851
-0.0395576
-0.0556057
-0.071667
-0.0846992
-0.0901593
-0.0846457
-0.0681855
-0.0429231
-0.0149901
0.0119734
0.0365891
0.0617111
0.0903575
0.120779
0.146213
0.158355
0.153417
0.134832
0.110693
0.0875337
0.0689807
0.0532399
0.0346606
0.0101159
-0.0183358
-0.0409885
-0.0503717
-0.0501471
-0.0450158
-0.0373188
-0.0307396
-0.0265375
-0.0226771
-0.0162851
-0.00709144
0.000306013
0.00301466
0.00301008
0.00135696
0.00284416
0.00428434
-0.000540762
-0.00697792
-0.0134043
-0.0206169
-0.0268477
-0.0304854
-0.0354178
-0.0450145
-0.0523631
-0.0501995
-0.0405327
-0.0235792
0.00201645
0.0303059
0.0545984
0.072054
0.0844009
0.0971782
0.11304
0.13085
0.14593
0.150953
0.140886
0.116988
0.0866148
0.0575745
0.0334746
0.0113934
-0.0123674
-0.039099
-0.0656649
-0.0857386
-0.0956484
-0.093146
-0.0815313
-0.0641511
-0.0458148
-0.0293798
-0.016279
-0.00712173
-0.00083897
0.00271061
0.00500396
0.0059801
0.00666967
0.00682954
0.007004
0.00700784
0.00700786
0.00700407
0.00682966
0.00666985
0.0059803
0.00500423
0.00271088
-0.000838628
-0.0071214
-0.0162787
-0.0293795
-0.0458145
-0.064151
-0.0815315
-0.0931465
-0.0956493
-0.0857396
-0.065666
-0.0391
-0.0123683
0.0113921
0.033473
0.0575727
0.0866138
0.116989
0.140889
0.150958
0.145935
0.130854
0.113043
0.0971796
0.084402
0.0720557
0.0546004
0.0303068
0.00201454
-0.0235845
-0.0405397
-0.0502069
-0.0523688
-0.0450158
-0.0354158
-0.0304842
-0.0268479
-0.0206171
-0.013404
-0.00697745
-0.000539027
0.00428782
0.0028462
0.000920075
-0.000239127
-0.00636466
-0.0133891
-0.0185971
-0.0247895
-0.032612
-0.0382877
-0.0434514
-0.0501423
-0.0501995
-0.0389486
-0.0217902
-0.000917245
0.0234584
0.0488533
0.0724665
0.0891188
0.0976742
0.103009
0.109053
0.118287
0.129648
0.137005
0.133173
0.115708
0.0888254
0.0606775
0.036843
0.016012
-0.00551778
-0.0312934
-0.0590528
-0.0833718
-0.0986497
-0.101313
-0.0931273
-0.076788
-0.0578953
-0.0392986
-0.0240504
-0.012355
-0.00434687
0.000877054
0.00410619
0.00595374
0.00707308
0.00762664
0.00796798
0.00808424
0.00808427
0.00796809
0.0076268
0.00707332
0.005954
0.00410651
0.000877377
-0.00434653
-0.0123547
-0.0240502
-0.0392986
-0.0578955
-0.0767885
-0.0931284
-0.101314
-0.0986515
-0.0833738
-0.0590546
-0.0312949
-0.00551897
0.0160108
0.0368419
0.0606766
0.0888258
0.11571
0.133176
0.137009
0.129651
0.118289
0.109055
0.103011
0.0976763
0.0891214
0.0724686
0.0488544
0.0234581
-0.000919792
-0.0217948
-0.0389549
-0.0502069
-0.050147
-0.0434523
-0.0382877
-0.0326119
-0.0247887
-0.0185966
-0.0133892
-0.00636362
-0.000236676
0.00092146
-0.0031465
-0.00883794
-0.0144294
-0.0196682
-0.0233075
-0.0289044
-0.0381241
-0.0459288
-0.0504026
-0.0503642
-0.0405327
-0.0217902
0.000768595
0.0244891
0.0466371
0.0686184
0.0905764
0.105251
0.109931
0.107386
0.10173
0.099594
0.103989
0.111381
0.114322
0.106391
0.0875936
0.0650779
0.0451902
0.028791
0.0122203
-0.00995806
-0.0371425
-0.0653507
-0.0873939
-0.0983849
-0.0975449
-0.0868143
-0.071302
-0.0543073
-0.0396553
-0.0278397
-0.0197613
-0.014243
-0.0110231
-0.00901873
-0.00796744
-0.00733709
-0.00703742
-0.00689496
-0.00689502
-0.00703757
-0.00733736
-0.0079678
-0.00901921
-0.0110236
-0.0142436
-0.0197621
-0.0278404
-0.0396561
-0.0543081
-0.0713028
-0.0868152
-0.0975458
-0.0983857
-0.0873945
-0.0653508
-0.037142
-0.00995713
0.0122214
0.0287916
0.0451903
0.0650777
0.0875938
0.106392
0.114323
0.111382
0.10399
0.0995944
0.101732
0.107388
0.109935
0.105255
0.0905798
0.0686204
0.0466385
0.0244893
0.000766342
-0.0217948
-0.0405397
-0.0503717
-0.0504078
-0.0459313
-0.0381243
-0.0289028
-0.0233063
-0.019668
-0.0144292
-0.00883793
-0.00314665
-0.00634948
-0.016663
-0.023508
-0.0279554
-0.0305336
-0.0348677
-0.0421326
-0.0480358
-0.048865
-0.0409806
-0.0235792
-0.000917245
0.0244891
0.0480263
0.0657358
0.0837199
0.103271
0.116839
0.120557
0.113021
0.0983181
0.085756
0.0814271
0.0859719
0.092836
0.0922648
0.0803128
0.0618536
0.043768
0.030115
0.0180154
0.00135604
-0.0214938
-0.0487475
-0.0726724
-0.0878123
-0.09087
-0.0831084
-0.0687363
-0.0516162
-0.0360554
-0.0231141
-0.0141958
-0.00808438
-0.00473867
-0.00273835
-0.00193704
-0.0014982
-0.00141996
-0.00137021
-0.00137023
-0.00142
-0.00149829
-0.00193714
-0.00273847
-0.00473881
-0.00808449
-0.0141959
-0.0231141
-0.0360555
-0.0516161
-0.0687363
-0.0831084
-0.0908701
-0.0878123
-0.0726722
-0.0487469
-0.0214928
0.00135718
0.0180163
0.0301152
0.0437674
0.0618529
0.0803121
0.0922644
0.0928352
0.0859704
0.0814257
0.0857557
0.09832
0.113026
0.120563
0.116844
0.103275
0.0837216
0.0657375
0.0480285
0.0244893
-0.000919796
-0.0235845
-0.0409885
-0.0488726
-0.0480405
-0.0421339
-0.0348668
-0.0305327
-0.0279557
-0.0235091
-0.0166646
-0.00635042
-0.00734064
-0.0203493
-0.0299742
-0.0364497
-0.0410951
-0.0447327
-0.0456121
-0.0425467
-0.0342633
-0.0183313
0.00201645
0.0234584
0.0466371
0.0657358
0.0787598
0.0932885
0.108974
0.120508
0.123389
0.113363
0.0949505
0.0769427
0.0670206
0.0693921
0.0786411
0.0834048
0.0762755
0.0590024
0.039062
0.02404
0.0128378
0.000325731
-0.017879
-0.0421816
-0.0656479
-0.082902
-0.0881369
-0.0822727
-0.067812
-0.0495837
-0.0317944
-0.0165586
-0.00553094
0.00222913
0.0066503
0.00938562
0.0105135
0.0111733
0.0112935
0.0113812
0.0113813
0.0112936
0.0111735
0.0105138
0.00938603
0.0066508
0.00222979
-0.0055302
-0.0165577
-0.0317935
-0.0495827
-0.0678112
-0.082272
-0.0881365
-0.0829019
-0.0656479
-0.0421817
-0.0178791
0.000325216
0.0128367
0.0240383
0.03906
0.059001
0.0762747
0.0834045
0.0786404
0.0693905
0.0670189
0.0769426
0.0949529
0.113368
0.123395
0.120513
0.108977
0.0932899
0.0787602
0.0657375
0.0466385
0.0234581
0.00201453
-0.0183358
-0.0342694
-0.042552
-0.0456161
-0.0447355
-0.0410966
-0.036451
-0.029976
-0.0203512
-0.00734149
-0.00663694
-0.0199975
-0.0322691
-0.0423126
-0.0500301
-0.0518164
-0.0442809
-0.0304207
-0.0120291
0.010116
0.0303059
0.0488533
0.0686184
0.0837199
0.0932885
0.101592
0.108524
0.114169
0.113696
0.102345
0.0841405
0.0649816
0.0532888
0.0556786
0.0688574
0.0814666
0.0826534
0.0696154
0.049137
0.0310053
0.0169027
0.00408856
-0.0141284
-0.0390971
-0.066027
-0.0888385
-0.0999255
-0.0992299
-0.0871323
-0.0696187
-0.0500988
-0.0326962
-0.0186838
-0.00845913
-0.00166557
0.00279858
0.00534541
0.0069554
0.00771649
0.00810465
0.00810467
0.00771651
0.00695547
0.00534545
0.00279865
-0.00166556
-0.00845911
-0.0186838
-0.0326963
-0.050099
-0.0696191
-0.0871329
-0.0992309
-0.0999266
-0.0888398
-0.066028
-0.0390979
-0.014129
0.00408797
0.0169018
0.0310044
0.0491363
0.0696157
0.0826544
0.0814675
0.0688573
0.055677
0.0532867
0.0649809
0.0841418
0.102349
0.113701
0.114173
0.108527
0.101595
0.0932899
0.0837216
0.0686204
0.0488544
0.0303068
0.0101159
-0.0120317
-0.0304251
-0.0442869
-0.0518232
-0.0500352
-0.0423155
-0.032271
-0.0199987
-0.00663727
-0.00566479
-0.0182445
-0.0311128
-0.041432
-0.0476151
-0.0454801
-0.0332583
-0.0144995
0.00945713
0.0346588
0.0545984
0.0724665
0.0905764
0.103271
0.108974
0.108524
0.105695
0.104471
0.0992477
0.0867335
0.0690305
0.0492148
0.0361326
0.0376151
0.0535356
0.074196
0.0859992
0.0810783
0.0641669
0.0453128
0.0298361
0.0174655
0.000337341
-0.0236124
-0.0530297
-0.080616
-0.0986812
-0.104668
-0.0976623
-0.0834661
-0.0649274
-0.0478201
-0.0328812
-0.0221806
-0.0144793
-0.00977025
-0.00677438
-0.00514075
-0.00422774
-0.00385439
-0.0038544
-0.00422784
-0.00514086
-0.0067746
-0.00977051
-0.0144797
-0.022181
-0.0328817
-0.0478208
-0.0649282
-0.0834671
-0.0976634
-0.10467
-0.0986826
-0.0806173
-0.0530306
-0.0236128
0.000337371
0.0174659
0.0298364
0.0453134
0.0641681
0.0810804
0.0860016
0.0741972
0.0535347
0.0376124
0.0361291
0.0492125
0.0690302
0.0867349
0.0992504
0.104474
0.105698
0.108527
0.108977
0.103274
0.0905798
0.0724687
0.0546004
0.0346606
0.00945648
-0.0145032
-0.0332642
-0.0454875
-0.0476218
-0.0414367
-0.0311155
-0.0182454
-0.00566478
-0.00477377
-0.0149499
-0.0240346
-0.0292617
-0.0297866
-0.0237026
-0.01113
0.00649655
0.0296005
0.0532383
0.072054
0.0891188
0.105251
0.116839
0.120508
0.114169
0.104471
0.096653
0.0870754
0.0742862
0.0571443
0.0371856
0.0218788
0.018971
0.0325773
0.0564215
0.0761644
0.0800491
0.0693735
0.0527583
0.0391746
0.0299765
0.0178762
-0.00085912
-0.0284025
-0.0569731
-0.0799855
-0.091366
-0.0899746
-0.0795328
-0.0633733
-0.0474383
-0.0328516
-0.0225434
-0.0149305
-0.0107418
-0.00800637
-0.00689101
-0.0062019
-0.00603984
-0.00603986
-0.00620201
-0.00689116
-0.00800658
-0.0107421
-0.0149307
-0.0225437
-0.0328518
-0.0474385
-0.0633734
-0.0795329
-0.0899747
-0.0913661
-0.0799854
-0.0569727
-0.0284017
-0.000857799
0.0178775
0.0299777
0.0391753
0.052759
0.0693747
0.0800507
0.0761658
0.0564213
0.0325748
0.0189671
0.0218746
0.0371825
0.0571431
0.0742863
0.0870767
0.0966555
0.104474
0.114173
0.120513
0.116844
0.105255
0.0891215
0.0720557
0.0532399
0.0296004
0.00649364
-0.0111345
-0.0237079
-0.0297918
-0.0292664
-0.0240382
-0.0149516
-0.00477403
-0.00234078
-0.00633464
-0.00778174
-0.00584698
-0.000267254
0.00952685
0.0212078
0.0340368
0.050791
0.0689801
0.0844009
0.0976742
0.109931
0.120557
0.123389
0.113696
0.0992477
0.0870754
0.076915
0.0665482
0.0523126
0.0347261
0.0179427
0.00969674
0.0177166
0.039856
0.0632444
0.0734356
0.0671827
0.0510875
0.0369929
0.0280997
0.0198945
0.00626541
-0.0170827
-0.0438392
-0.0684955
-0.0821148
-0.0837777
-0.0742205
-0.0582668
-0.0407133
-0.0244385
-0.0120722
-0.00288728
0.00254812
0.00611242
0.00771687
0.0087013
0.0089729
0.00897291
0.00870135
0.00771692
0.00611253
0.00254823
-0.00288707
-0.012072
-0.0244382
-0.040713
-0.0582664
-0.0742202
-0.0837774
-0.0821145
-0.0684952
-0.0438385
-0.0170819
0.0062665
0.0198953
0.0281001
0.036993
0.0510875
0.0671834
0.0734365
0.0632447
0.0398546
0.0177133
0.00969269
0.0179393
0.0347239
0.0523116
0.066548
0.0769153
0.0870767
0.0992505
0.113701
0.123395
0.120563
0.109935
0.0976763
0.084402
0.0689807
0.0507905
0.0340351
0.021206
0.00952469
-0.000270122
-0.00585013
-0.00778452
-0.00633641
-0.00234131
0.00226083
0.0080106
0.0158476
0.0247644
0.0354189
0.0479788
0.0584006
0.0661519
0.0758837
0.087533
0.0971782
0.103009
0.107386
0.113021
0.113363
0.102345
0.0867335
0.0742862
0.0665482
0.0603356
0.0512444
0.0381156
0.0224058
0.0111469
0.013404
0.0317463
0.0561073
0.0707106
0.0676428
0.0509501
0.033641
0.0216872
0.0141397
0.00300696
-0.016769
-0.0423741
-0.068221
-0.0845696
-0.08946
-0.0812985
-0.0658551
-0.0465309
-0.0284405
-0.0132672
-0.0021
0.00543069
0.0102151
0.0129061
0.0144041
0.0149945
0.0149945
0.0144042
0.0129063
0.0102153
0.00543094
-0.00209967
-0.0132669
-0.0284402
-0.0465305
-0.0658549
-0.0812984
-0.0894601
-0.0845697
-0.0682213
-0.0423742
-0.0167691
0.00300683
0.0141393
0.0216863
0.0336401
0.0509495
0.0676433
0.0707115
0.0561075
0.031745
0.0134013
0.011144
0.0224038
0.0381148
0.0512442
0.0603356
0.0665481
0.0742864
0.0867349
0.102349
0.113368
0.113026
0.107388
0.103011
0.0971796
0.0875336
0.0758833
0.0661514
0.0584012
0.0479796
0.0354186
0.0247635
0.0158467
0.00800982
0.00226049
0.00736248
0.0234178
0.0404524
0.0556866
0.0699236
0.0843111
0.0952858
0.101374
0.105954
0.110691
0.11304
0.109053
0.10173
0.0983181
0.0949505
0.0841405
0.0690305
0.0571443
0.0523126
0.0512444
0.0482922
0.0409072
0.0288035
0.0167494
0.0144709
0.0289053
0.0536496
0.0733823
0.0755636
0.0606646
0.0408784
0.0252264
0.0159893
0.00520888
-0.012898
-0.0391328
-0.0675713
-0.0891886
-0.0994031
-0.0957717
-0.0830194
-0.0644002
-0.0459866
-0.0294075
-0.0170775
-0.00810227
-0.00252172
0.000989531
0.00281296
0.00365084
0.00365082
0.00281295
0.000989483
-0.00252177
-0.00810235
-0.0170776
-0.0294076
-0.0459868
-0.0644005
-0.0830198
-0.0957722
-0.0994038
-0.0891893
-0.067572
-0.0391333
-0.0128983
0.00520854
0.0159888
0.0252256
0.0408778
0.0606647
0.0755646
0.0733835
0.0536499
0.0289042
0.0144689
0.0167479
0.0288031
0.0409075
0.0482926
0.0512442
0.0523117
0.0571432
0.0690302
0.0841418
0.0949529
0.09832
0.101732
0.109055
0.113043
0.110693
0.105955
0.101375
0.095288
0.0843134
0.0699252
0.0556879
0.0404535
0.0234181
0.0073624
0.0111928
0.0349622
0.0589575
0.0792263
0.0967787
0.113945
0.127712
0.134671
0.135924
0.134828
0.13085
0.118287
0.099594
0.085756
0.0769427
0.0649816
0.0492148
0.0371856
0.0347261
0.0381156
0.0409072
0.0396397
0.0322138
0.0212848
0.0161908
0.0266243
0.0509984
0.0756989
0.0845712
0.0739801
0.0538043
0.0355551
0.024632
0.0145983
-0.00130897
-0.0266921
-0.0566306
-0.0827745
-0.0983411
-0.100111
-0.0909482
-0.074501
-0.0566348
-0.0399047
-0.0270076
-0.0174833
-0.0115012
-0.00772214
-0.00578595
-0.00489042
-0.00489044
-0.00578603
-0.00772228
-0.0115014
-0.0174836
-0.0270079
-0.039905
-0.0566352
-0.0745014
-0.0909488
-0.100112
-0.098342
-0.0827753
-0.0566312
-0.0266924
-0.00130903
0.0145982
0.0246318
0.0355548
0.0538045
0.0739812
0.084573
0.0757006
0.0509989
0.0266235
0.0161895
0.0212842
0.0322143
0.0396406
0.0409075
0.0381148
0.0347239
0.0371825
0.0492125
0.0649808
0.0769425
0.0857557
0.0995944
0.118289
0.130854
0.134832
0.135927
0.134674
0.127716
0.113948
0.0967808
0.0792287
0.0589596
0.034963
0.0111929
0.013218
0.0410137
0.0688409
0.0928033
0.113698
0.133222
0.149091
0.157936
0.158274
0.153412
0.14593
0.129648
0.103989
0.0814271
0.0670206
0.0532888
0.0361326
0.0218788
0.0179427
0.0224058
0.0288035
0.0322138
0.0296779
0.0216192
0.0151865
0.0218722
0.0448013
0.073223
0.0892033
0.0846386
0.0660627
0.0464765
0.0342754
0.0254015
0.0126959
-0.0099673
-0.039351
-0.0679975
-0.0877059
-0.0940338
-0.0882585
-0.0738015
-0.0564583
-0.0394554
-0.0258549
-0.0156603
-0.00913377
-0.00502584
-0.00290423
-0.0019374
-0.00193741
-0.00290428
-0.00502592
-0.00913388
-0.0156604
-0.0258551
-0.0394556
-0.0564585
-0.0738017
-0.0882588
-0.0940342
-0.0877063
-0.0679978
-0.0393511
-0.00996714
0.0126962
0.0254017
0.0342755
0.0464766
0.0660634
0.0846402
0.0892055
0.0732247
0.0448017
0.0218714
0.0151856
0.0216191
0.0296785
0.0322143
0.0288031
0.0224038
0.0179393
0.0218746
0.0361291
0.0532866
0.0670189
0.0814257
0.10399
0.129651
0.145935
0.153417
0.158279
0.157941
0.149095
0.133226
0.1137
0.0928056
0.0688429
0.0410143
0.0132179
0.0141656
0.0436616
0.0729142
0.098614
0.12093
0.140002
0.15538
0.165453
0.16553
0.158351
0.150953
0.137005
0.111381
0.0859719
0.0693921
0.0556786
0.0376151
0.018971
0.00969674
0.0111469
0.0167494
0.0212848
0.0216192
0.0157887
0.00876374
0.0121737
0.0328752
0.0641674
0.0875104
0.0904801
0.075514
0.0557197
0.0421814
0.0340279
0.0242789
0.00495469
-0.0227723
-0.0527664
-0.0757185
-0.0862112
-0.0836318
-0.0711471
-0.0541986
-0.0367158
-0.0221016
-0.0108822
-0.00348762
0.00123233
0.00372449
0.00486454
0.00486453
0.00372446
0.00123228
-0.00348768
-0.0108823
-0.0221017
-0.0367158
-0.0541987
-0.0711472
-0.0836319
-0.0862113
-0.0757186
-0.0527663
-0.022772
0.00495527
0.0242797
0.0340285
0.0421819
0.0557202
0.0755152
0.0904821
0.0875125
0.0641687
0.0328749
0.0121724
0.0087625
0.0157882
0.0216191
0.0212841
0.0167478
0.011144
0.00969266
0.018967
0.0376124
0.055677
0.0693905
0.0859705
0.111382
0.137009
0.150958
0.158355
0.165535
0.165459
0.155385
0.140005
0.120933
0.0986162
0.0729158
0.043662
0.0141654
0.0149064
0.0451748
0.0739368
0.0990091
0.120254
0.135732
0.147063
0.155694
0.15473
0.14621
0.140886
0.133173
0.114322
0.092836
0.0786411
0.0688574
0.0535356
0.0325773
0.0177166
0.013404
0.0144709
0.0161908
0.0151865
0.00876374
-0.000257794
-0.00158297
0.014939
0.0469308
0.0765257
0.0877737
0.0782224
0.0596136
0.0453012
0.0376205
0.0306705
0.0152361
-0.00994788
-0.0400091
-0.0654554
-0.0795792
-0.0801707
-0.0697159
-0.0532311
-0.0352751
-0.0194864
-0.00709727
0.00140936
0.00688714
0.00990378
0.0112721
0.0112721
0.00990378
0.00688715
0.00140937
-0.00709724
-0.0194864
-0.035275
-0.0532311
-0.0697158
-0.0801707
-0.0795791
-0.0654554
-0.0400089
-0.0099474
0.0152368
0.0306712
0.037621
0.0453017
0.0596142
0.0782237
0.0877755
0.0765273
0.0469311
0.0149376
-0.00158522
-0.000259786
0.00876245
0.0151856
0.0161894
0.0144689
0.0134013
0.0177133
0.0325748
0.0535347
0.0688572
0.0786405
0.0928353
0.114323
0.133176
0.14089
0.146213
0.154734
0.155699
0.147067
0.135735
0.120257
0.0990113
0.0739384
0.0451754
0.0149064
0.0151469
0.0447868
0.0711708
0.0938514
0.112357
0.12227
0.127462
0.132993
0.130486
0.120778
0.116988
0.115708
0.106391
0.0922648
0.0834048
0.0814666
0.074196
0.0564215
0.039856
0.0317463
0.0289053
0.0266243
0.0218722
0.0121737
-0.00158297
-0.0105611
-0.00224837
0.0256325
0.0575383
0.0752078
0.0709706
0.0542418
0.0396144
0.0324048
0.0287117
0.0180128
-0.00288116
-0.0312295
-0.0576022
-0.0742851
-0.077656
-0.0690002
-0.0531538
-0.0346863
-0.0178776
-0.00423755
0.0053261
0.0116349
0.0151598
0.0167819
0.0167819
0.0151598
0.011635
0.00532621
-0.0042374
-0.0178774
-0.0346861
-0.0531535
-0.0689999
-0.0776557
-0.0742848
-0.0576019
-0.031229
-0.00288055
0.0180135
0.0287122
0.0324049
0.0396143
0.0542418
0.0709711
0.0752086
0.0575385
0.0256313
-0.00225105
-0.0105641
-0.00158527
0.0121723
0.0218713
0.0266234
0.0289042
0.0317449
0.0398547
0.0564213
0.0741972
0.0814675
0.0834046
0.0922644
0.106392
0.11571
0.116989
0.120779
0.130489
0.132996
0.127464
0.122274
0.11236
0.0938539
0.0711726
0.0447879
0.0151472
0.0138595
0.0398668
0.0614819
0.0803413
0.0954256
0.100301
0.100677
0.103782
0.100425
0.0903585
0.0866148
0.0888254
0.0875936
0.0803128
0.0762755
0.0826534
0.0859992
0.0761644
0.0632444
0.0561073
0.0536496
0.0509984
0.0448013
0.0328752
0.014939
-0.00224837
-0.00461117
0.0148674
0.0442335
0.0645531
0.0631245
0.0465371
0.0293529
0.020125
0.0172123
0.0095495
-0.00762645
-0.0343491
-0.0611314
-0.0802617
-0.0861207
-0.0793582
-0.0639889
-0.0449143
-0.0267754
-0.0115612
-0.000586151
0.00686399
0.0111147
0.0131109
0.0131109
0.0111147
0.00686401
-0.000586124
-0.0115611
-0.0267754
-0.0449142
-0.0639888
-0.0793582
-0.0861208
-0.0802618
-0.0611315
-0.0343491
-0.00762634
0.00954954
0.0172121
0.0201243
0.0293522
0.0465365
0.0631244
0.0645531
0.0442327
0.0148654
-0.00461421
-0.00225107
0.0149375
0.0328749
0.0448017
0.0509989
0.0536499
0.0561076
0.0632448
0.0761659
0.0860016
0.0826545
0.0762748
0.0803122
0.0875938
0.0888258
0.0866138
0.0903575
0.100426
0.103784
0.100678
0.100303
0.0954291
0.0803438
0.0614838
0.0398683
0.01386
0.0104416
0.0288055
0.0427875
0.0564212
0.0680559
0.0700792
0.0688822
0.0716755
0.0697148
0.0617126
0.0575745
0.0606775
0.0650779
0.0618536
0.0590024
0.0696154
0.0810783
0.0800491
0.0734356
0.0707106
0.0733823
0.0756989
0.073223
0.0641674
0.0469308
0.0256325
0.0148674
0.0252762
0.0495999
0.0696369
0.0684326
0.0496883
0.0269609
0.0122773
0.0064233
-0.00107543
-0.0165206
-0.0426069
-0.0703416
-0.0924063
-0.10122
-0.0970407
-0.0826219
-0.0634966
-0.0442361
-0.0277024
-0.01532
-0.00680358
-0.0017896
0.000567196
0.000567196
-0.00178963
-0.00680361
-0.01532
-0.0277024
-0.0442362
-0.0634967
-0.0826221
-0.097041
-0.101221
-0.0924069
-0.0703422
-0.0426076
-0.0165212
-0.00107625
0.00642227
0.0122759
0.0269595
0.0496874
0.0684324
0.069637
0.0495992
0.0252746
0.0148654