/*--------------------------------*- C++ -*----------------------------------*\
  =========                 |
  \\      /  F ield         | OpenFOAM: The Open Source CFD Toolbox
   \\    /   O peration     | Website:  https://openfoam.org
    \\  /    A nd           | Version:  10
     \\/     M anipulation  |
\*---------------------------------------------------------------------------*/
FoamFile
{
    format      ascii;
    class       volScalarField;
    location    "26";
    object      h_0;
}
// * * * * * * * * * * * * * * * * * * * * * * * * * * * * * * * * * * * * * //

dimensions      [0 1 0 0 0 0 0];

internalField   nonuniform List<scalar> 
10000
(
-0.00227359
-0.00368581
-0.000427851
0.00264271
0.00202643
-0.000630552
-0.00249225
-0.00271342
-0.00128788
0.00134059
0.0028176
0.000870536
-0.00321855
-0.00639442
-0.00733904
-0.00662546
-0.00565358
-0.00473302
-0.00225068
0.00238824
0.00748284
0.0112684
0.0132508
0.0141733
0.0148941
0.0151037
0.0137707
0.0103106
0.00513074
-0.00047331
-0.00504895
-0.00778395
-0.00857049
-0.00793082
-0.00659484
-0.0051485
-0.00400876
-0.00326266
-0.00291937
-0.00284265
-0.00293466
-0.00309418
-0.00325824
-0.00340278
-0.00350372
-0.00357599
-0.0036126
-0.00363495
-0.00364127
-0.00364461
-0.00364465
-0.00364136
-0.0036351
-0.00361281
-0.00357626
-0.00350404
-0.00340314
-0.00325863
-0.00309458
-0.00293505
-0.002843
-0.00291965
-0.00326285
-0.00400884
-0.00514844
-0.00659468
-0.00793056
-0.00857016
-0.00778357
-0.00504852
-0.000472815
0.00513132
0.0103112
0.0137712
0.0151039
0.014894
0.0141731
0.0132508
0.0112684
0.00748276
0.0023879
-0.00225121
-0.00473328
-0.00565358
-0.00662579
-0.00733988
-0.00639535
-0.00321871
0.000871928
0.00281963
0.00134125
-0.00128905
-0.00271512
-0.00249324
-0.000630182
0.0020283
0.00264469
-0.000428328
-0.00368886
-0.00227547
-0.00368581
-0.00577619
-7.08141e-05
0.00469262
0.00221128
-0.00344248
-0.00580949
-0.00422484
-0.000829261
0.00300888
0.00421717
-0.000398377
-0.00904356
-0.0167835
-0.020353
-0.0199655
-0.0181995
-0.0148324
-0.00609269
0.00834816
0.0237359
0.0351722
0.0411225
0.0437131
0.0451835
0.0447188
0.039677
0.0284966
0.012428
-0.00470969
-0.0187167
-0.0270609
-0.0293098
-0.0269441
-0.0220407
-0.0164902
-0.0115765
-0.00776155
-0.00516636
-0.00348969
-0.00251644
-0.00194032
-0.00161832
-0.00141587
-0.00127971
-0.00118003
-0.0010987
-0.00104081
-0.000998025
-0.000978068
-0.00097808
-0.000998058
-0.00104087
-0.00109878
-0.00118014
-0.00127985
-0.00141605
-0.00161853
-0.00194056
-0.00251671
-0.00348998
-0.00516665
-0.00776183
-0.0115768
-0.0164905
-0.022041
-0.0269444
-0.0293101
-0.0270613
-0.0187168
-0.00470939
0.0124289
0.0284979
0.0396784
0.0447199
0.0451841
0.0437135
0.0411232
0.035173
0.0237362
0.0083474
-0.00609446
-0.0148341
-0.0182004
-0.0199667
-0.0203549
-0.0167852
-0.00904358
-0.000395952
0.00422064
0.00301056
-0.000830185
-0.00422708
-0.00581177
-0.00344304
0.002214
0.00469643
-7.1023e-05
-0.00578101
-0.00368886
-0.000427851
-7.08141e-05
0.00179948
0.00165418
-0.00290842
-0.00755577
-0.0064236
-0.000857023
0.00324496
0.00304411
-0.000619045
-0.00657007
-0.0146809
-0.0236907
-0.0300579
-0.0322688
-0.0310218
-0.0238105
-0.007382
0.0163573
0.0409182
0.0592844
0.0690369
0.0730341
0.0739988
0.0711174
0.0612417
0.042355
0.0164887
-0.0106402
-0.0328199
-0.0459121
-0.0491707
-0.0447612
-0.0358687
-0.0257439
-0.0164359
-0.00903208
-0.00371328
-0.000160063
0.00201163
0.0033136
0.00399183
0.00436463
0.00450179
0.00456131
0.00454358
0.00452343
0.00449088
0.00447665
0.00447668
0.00449098
0.0045236
0.00454382
0.00456162
0.00450217
0.00436506
0.00399232
0.00331412
0.00201216
-0.000159533
-0.00371281
-0.0090317
-0.0164357
-0.025744
-0.0358692
-0.0447622
-0.0491721
-0.0459137
-0.0328214
-0.0106411
0.0164888
0.0423562
0.0612435
0.0711193
0.0740004
0.0730357
0.0690388
0.0592865
0.0409193
0.0163564
-0.00738477
-0.023814
-0.0310245
-0.0322707
-0.0300597
-0.0236918
-0.0146808
-0.00656908
-0.000617318
0.00304666
0.00324752
-0.000856365
-0.006426
-0.00755904
-0.00290896
0.00165636
0.00180117
-7.10145e-05
-0.000428321
0.00264271
0.00469262
0.00165418
-0.00285919
-0.00623955
-0.00742558
-0.0049463
0.000406411
0.00358533
0.000249142
-0.00708599
-0.0135303
-0.0198382
-0.0281765
-0.0366633
-0.042382
-0.0412826
-0.0288702
-0.00524009
0.0254466
0.0562833
0.079648
0.0930442
0.0987301
0.099021
0.0937055
0.0799743
0.0558312
0.0236168
-0.010415
-0.0390206
-0.0567993
-0.0625779
-0.0584079
-0.0481934
-0.0360134
-0.0245432
-0.0154844
-0.00897869
-0.00487489
-0.00246365
-0.0012301
-0.000688356
-0.000506419
-0.000528586
-0.000591389
-0.000696635
-0.000763697
-0.000827051
-0.000850919
-0.000850928
-0.000827084
-0.000763745
-0.000696701
-0.000591458
-0.00052866
-0.000506475
-0.000688394
-0.00123009
-0.00246359
-0.00487477
-0.0089785
-0.0154842
-0.024543
-0.0360133
-0.0481936
-0.0584085
-0.062579
-0.0568007
-0.0390219
-0.0104156
0.0236173
0.0558329
0.0799767
0.093708
0.0990233
0.0987322
0.0930464
0.0796503
0.0562846
0.0254457
-0.0052432
-0.0288748
-0.0412872
-0.0423849
-0.0366647
-0.0281769
-0.019838
-0.0135304
-0.00708552
0.000251997
0.00358945
0.000408496
-0.00494769
-0.00742893
-0.00624238
-0.00285982
0.00165638
0.00469644
0.00264469
0.00202643
0.00221128
-0.00290842
-0.00623955
-0.00385421
-0.000780828
-0.00129789
-0.00260776
-0.00344465
-0.00728834
-0.013587
-0.0186862
-0.0233845
-0.0307314
-0.0413356
-0.0501101
-0.0474014
-0.0292459
0.00049168
0.0362169
0.0706233
0.0972744
0.113957
0.120992
0.120143
0.112065
0.0949333
0.0673748
0.0313956
-0.00747218
-0.041622
-0.0648724
-0.0750357
-0.0732219
-0.0635851
-0.0503128
-0.0370029
-0.0257838
-0.017226
-0.0114273
-0.0075511
-0.00524958
-0.00373831
-0.00286674
-0.0022272
-0.00182538
-0.00150011
-0.00128833
-0.00113709
-0.00106731
-0.00106732
-0.00113715
-0.00128843
-0.00150026
-0.00182558
-0.00222747
-0.00286709
-0.00373874
-0.00525011
-0.00755168
-0.0114279
-0.0172267
-0.0257846
-0.0370037
-0.0503137
-0.0635861
-0.0732231
-0.0750371
-0.0648736
-0.0416227
-0.00747193
0.0313972
0.0673775
0.0949367
0.112068
0.120146
0.120994
0.113959
0.0972765
0.0706249
0.0362166
0.000488889
-0.0292511
-0.0474081
-0.0501153
-0.0413371
-0.0307306
-0.0233832
-0.0186856
-0.0135867
-0.00728705
-0.00344297
-0.00260685
-0.00129689
-0.000779871
-0.00385543
-0.00624236
-0.00290895
0.00221399
0.00202829
-0.000630552
-0.00344248
-0.00755577
-0.00742558
-0.000780828
0.00476166
0.00221049
-0.00506043
-0.011501
-0.0164656
-0.0207957
-0.02489
-0.0289921
-0.035031
-0.0449056
-0.051844
-0.0452011
-0.0230901
0.010323
0.0488192
0.085084
0.11453
0.133563
0.140087
0.135581
0.121919
0.099757
0.0693565
0.0320626
-0.0080276
-0.0440412
-0.070057
-0.0825938
-0.082005
-0.0720357
-0.0568397
-0.0410373
-0.026934
-0.0160905
-0.00842697
-0.00346112
-0.000549304
0.00114709
0.00192117
0.00236488
0.00245407
0.00253152
0.00248167
0.00248227
0.00245475
0.00245477
0.00248231
0.00248175
0.00253163
0.00245421
0.00236506
0.00192137
0.00114734
-0.000549043
-0.00346081
-0.00842666
-0.0160902
-0.0269338
-0.0410372
-0.0568399
-0.0720363
-0.0820061
-0.0825954
-0.0700589
-0.0440428
-0.00802842
0.032063
0.0693581
0.0997595
0.121922
0.135584
0.14009
0.133567
0.114533
0.0850863
0.04882
0.0103209
-0.0230952
-0.0452085
-0.0518508
-0.0449084
-0.0350301
-0.0289905
-0.0248892
-0.0207959
-0.0164665
-0.0115016
-0.00505957
0.00221403
0.00476619
-0.000779856
-0.00742891
-0.00755905
-0.00344306
-0.000630199
-0.00249225
-0.00580949
-0.0064236
-0.0049463
-0.00129789
0.00221049
0.000907413
-0.00675773
-0.016423
-0.0227241
-0.0269304
-0.0327476
-0.0382915
-0.0422669
-0.045661
-0.0441679
-0.0328687
-0.0104927
0.0219762
0.059225
0.096063
0.128339
0.149477
0.155463
0.146871
0.127058
0.100101
0.0681539
0.0318548
-0.00646292
-0.0420629
-0.0697622
-0.0849002
-0.0871364
-0.0785919
-0.0636035
-0.0468594
-0.031206
-0.0190187
-0.0100829
-0.00459289
-0.00126512
0.00028266
0.000969176
0.00106643
0.000946907
0.000745533
0.000540797
0.000401066
0.000319787
0.000319774
0.000401061
0.000540773
0.000745534
0.000946912
0.00106649
0.000969284
0.000282859
-0.00126481
-0.00459245
-0.0100823
-0.019018
-0.0312052
-0.0468587
-0.063603
-0.0785919
-0.087137
-0.0849014
-0.069764
-0.0420647
-0.0064644
0.0318541
0.0681541
0.100102
0.12706
0.146875
0.155468
0.149482
0.128343
0.0960653
0.0592257
0.0219744
-0.0104971
-0.0328746
-0.044174
-0.0456651
-0.0422683
-0.0382917
-0.0327475
-0.0269307
-0.0227254
-0.0164235
-0.00675552
0.000911579
0.00221403
-0.00129688
-0.00494769
-0.00642602
-0.00581178
-0.00249324
-0.00271342
-0.00422484
-0.000857023
0.000406411
-0.00260776
-0.00506043
-0.00675773
-0.0129802
-0.0217181
-0.0265887
-0.0305654
-0.0384676
-0.046095
-0.0480202
-0.0423466
-0.0300721
-0.0140086
0.00708961
0.0347261
0.0669034
0.102093
0.135254
0.158242
0.165405
0.155349
0.132472
0.103189
0.0710555
0.0364101
-0.000182666
-0.0366197
-0.0679423
-0.0888344
-0.0972127
-0.093024
-0.0805211
-0.0635298
-0.0463704
-0.031492
-0.0197781
-0.011632
-0.00591871
-0.00252478
-0.000154267
0.00109848
0.00208069
0.00255918
0.00298295
0.00316219
0.00328584
0.00328584
0.00316221
0.00298297
0.0025592
0.00208069
0.00109844
-0.00015434
-0.00252495
-0.00591892
-0.0116323
-0.0197785
-0.0314926
-0.0463711
-0.0635308
-0.0805223
-0.0930255
-0.0972146
-0.0888364
-0.0679442
-0.036621
-0.000183257
0.0364102
0.0710566
0.103191
0.132475
0.155354
0.16541
0.158247
0.135257
0.102094
0.066903
0.0347245
0.00708675
-0.0140122
-0.0300764
-0.0423519
-0.0480249
-0.0460976
-0.0384676
-0.0305641
-0.0265888
-0.0217188
-0.0129788
-0.00675554
-0.00505958
-0.00260684
0.000408486
-0.000856376
-0.00422707
-0.0027151
-0.00128788
-0.000829261
0.00324496
0.00358533
-0.00344465
-0.011501
-0.016423
-0.0217181
-0.0274031
-0.0309135
-0.0355767
-0.0436278
-0.0504438
-0.0486248
-0.0338118
-0.0115058
0.00995552
0.030095
0.0513761
0.0765594
0.106652
0.136505
0.158553
0.165419
0.15428
0.129851
0.0997657
0.0691031
0.038569
0.00679614
-0.0267753
-0.0581458
-0.0825983
-0.095687
-0.0961102
-0.0866893
-0.0706666
-0.053375
-0.0370229
-0.0241619
-0.0145564
-0.00818515
-0.0041555
-0.00168978
-0.000361745
0.000497895
0.000867073
0.00117069
0.00125926
0.00133857
0.00133859
0.00125927
0.00117071
0.000867078
0.00049792
-0.000361761
-0.00168979
-0.00415556
-0.00818522
-0.0145565
-0.0241621
-0.0370231
-0.0533754
-0.0706673
-0.0866904
-0.0961115
-0.0956885
-0.0825999
-0.0581471
-0.0267761
0.00679593
0.0385691
0.0691037
0.0997672
0.129854
0.154284
0.165424
0.158558
0.136509
0.106653
0.076559
0.0513756
0.0300949
0.00995489
-0.0115085
-0.0338178
-0.0486324
-0.050449
-0.0436289
-0.0355748
-0.030912
-0.0274035
-0.0217188
-0.0164235
-0.0115016
-0.00344296
0.00358944
0.00324752
-0.000830166
-0.00128904
0.00134059
0.00300888
0.00304411
0.000249142
-0.00728834
-0.0164656
-0.0227241
-0.0265887
-0.0309135
-0.0375187
-0.0451685
-0.0502278
-0.0502524
-0.0405943
-0.0177489
0.0107287
0.0351549
0.0536489
0.069427
0.0880759
0.111315
0.135399
0.153749
0.158324
0.14581
0.120135
0.0896431
0.0610232
0.0359175
0.0112862
-0.0157024
-0.0435749
-0.0686623
-0.0848649
-0.0900828
-0.0843957
-0.0712019
-0.0550917
-0.0390488
-0.0262323
-0.016409
-0.0104088
-0.00655213
-0.00485758
-0.00395173
-0.00385393
-0.0038634
-0.00405825
-0.00417267
-0.00426108
-0.0042611
-0.00417279
-0.0040584
-0.00386363
-0.00385418
-0.003952
-0.00485782
-0.00655229
-0.0104089
-0.0164089
-0.026232
-0.0390483
-0.0550911
-0.0712012
-0.0843952
-0.0900824
-0.0848646
-0.0686622
-0.0435748
-0.0157025
0.0112857
0.0359164
0.0610217
0.0896421
0.120136
0.145813
0.158329
0.153754
0.135403
0.111317
0.0880766
0.0694276
0.0536505
0.0351567
0.0107285
-0.0177533
-0.0406022
-0.05026
-0.0502327
-0.0451698
-0.0375172
-0.030912
-0.0265888
-0.0227254
-0.0164665
-0.00728705
0.000251986
0.00304667
0.00301057
0.00134125
0.0028176
0.00421717
-0.000619045
-0.00708599
-0.013587
-0.0207957
-0.0269304
-0.0305654
-0.0355767
-0.0451685
-0.0524232
-0.050097
-0.0402108
-0.0230543
0.00269202
0.0309864
0.0551035
0.0723791
0.0846539
0.0974614
0.113402
0.131233
0.146205
0.150979
0.140612
0.116496
0.0860635
0.0570713
0.0330155
0.0109084
-0.012945
-0.0397236
-0.0662483
-0.0861552
-0.0958388
-0.0931222
-0.0813453
-0.0639028
-0.0455535
-0.0291705
-0.0161159
-0.00701915
-0.000769141
0.00275117
0.00503492
0.00600479
0.00669528
0.00685676
0.00703334
0.00703846
0.00703848
0.00703341
0.00685688
0.00669546
0.00600499
0.00503518
0.00275144
-0.000768804
-0.00701884
-0.0161155
-0.0291702
-0.0455533
-0.0639028
-0.0813456
-0.0931228
-0.0958398
-0.0861562
-0.0662494
-0.0397246
-0.0129459
0.0109071
0.0330138
0.0570695
0.0860625
0.116496
0.140615
0.150984
0.14621
0.131237
0.113404
0.0974628
0.0846549
0.0723808
0.0551055
0.0309874
0.0026902
-0.0230596
-0.0402178
-0.0501044
-0.052429
-0.0451698
-0.0355748
-0.0305641
-0.0269306
-0.0207959
-0.0135867
-0.00708552
-0.000617305
0.00422064
0.00281963
0.000870536
-0.000398377
-0.00657007
-0.0135303
-0.0186862
-0.02489
-0.0327476
-0.0384676
-0.0436278
-0.0502278
-0.050097
-0.0385776
-0.021232
-0.000298427
0.024135
0.0495113
0.0729655
0.0894307
0.0978274
0.10308
0.109134
0.118399
0.129742
0.136979
0.132946
0.115312
0.0883994
0.0603334
0.0366
0.0157741
-0.00586174
-0.0317606
-0.059586
-0.083832
-0.0989551
-0.10142
-0.0930792
-0.0766549
-0.0577448
-0.0391899
-0.0239918
-0.0123615
-0.00438966
0.000798545
0.00402007
0.00585777
0.00698273
0.00753655
0.0078834
0.00800062
0.00800065
0.00788351
0.00753671
0.00698297
0.00585803
0.00402039
0.000798857
-0.00438934
-0.0123612
-0.0239916
-0.0391899
-0.057745
-0.0766555
-0.0930803
-0.101421
-0.098957
-0.0838339
-0.0595878
-0.0317621
-0.00586291
0.0157729
0.0365989
0.0603326
0.0883997
0.115314
0.132949
0.136983
0.129746
0.118402
0.109136
0.103082
0.0978294
0.0894333
0.0729677
0.0495124
0.0241348
-0.0003009
-0.0212364
-0.0385839
-0.0501043
-0.0502327
-0.0436289
-0.0384676
-0.0327475
-0.0248892
-0.0186856
-0.0135304
-0.00656907
-0.000395955
0.000871921
-0.00321855
-0.00904356
-0.0146809
-0.0198382
-0.0233845
-0.0289921
-0.0382915
-0.046095
-0.0504438
-0.0502524
-0.0402108
-0.021232
0.00137081
0.0250239
0.0471948
0.0691942
0.0910938
0.105625
0.110081
0.107368
0.101658
0.0995458
0.103989
0.111336
0.114096
0.105953
0.0870471
0.0645739
0.0448294
0.0285226
0.0119497
-0.0102904
-0.0375083
-0.0656286
-0.0874964
-0.098249
-0.0972175
-0.086364
-0.07083
-0.053884
-0.039322
-0.0276127
-0.0196265
-0.0141911
-0.0110266
-0.00906929
-0.00804418
-0.00743609
-0.00714636
-0.0070104
-0.00701047
-0.0071465
-0.00743636
-0.00804454
-0.00906977
-0.0110272
-0.0141917
-0.0196272
-0.0276134
-0.0393228
-0.0538848
-0.0708309
-0.0863648
-0.0972184
-0.0982497
-0.0874969
-0.0656287
-0.0375078
-0.0102895
0.0119508
0.0285232
0.0448295
0.0645738
0.0870473
0.105954
0.114097
0.111337
0.103989
0.0995462
0.10166
0.107371
0.110085
0.105629
0.0910973
0.0691962
0.0471963
0.0250241
0.00136863
-0.0212364
-0.0402178
-0.05026
-0.050449
-0.0460976
-0.0382917
-0.0289905
-0.0233832
-0.019838
-0.0146808
-0.00904359
-0.00321872
-0.00639442
-0.0167835
-0.0236907
-0.0281765
-0.0307314
-0.035031
-0.0422669
-0.0480202
-0.0486248
-0.0405943
-0.0230543
-0.000298427
0.0250239
0.0484701
0.0661787
0.0841656
0.103699
0.117122
0.120596
0.112891
0.0981322
0.0856498
0.0814767
0.0860815
0.0928231
0.0920053
0.0798276
0.0612996
0.0432955
0.0297274
0.0176478
0.00091285
-0.0220014
-0.0492157
-0.0729868
-0.0878691
-0.0906855
-0.0827228
-0.0682597
-0.0511188
-0.0356039
-0.022729
-0.013881
-0.0078304
-0.00452746
-0.00256006
-0.0017764
-0.00135143
-0.00127863
-0.00123258
-0.0012326
-0.00127867
-0.00135152
-0.00177649
-0.00256018
-0.00452759
-0.00783051
-0.0138811
-0.022729
-0.0356039
-0.0511187
-0.0682597
-0.0827228
-0.0906855
-0.087869
-0.0729866
-0.0492151
-0.0220004
0.00091398
0.0176487
0.0297276
0.043295
0.0612988
0.0798269
0.0920049
0.0928223
0.08608
0.0814753
0.0856495
0.0981341
0.112896
0.120601
0.117127
0.103703
0.0841673
0.0661804
0.0484723
0.0250241
-0.000300904
-0.0230596
-0.0406022
-0.0486324
-0.0480249
-0.0422683
-0.0350301
-0.0307306
-0.0281769
-0.0236918
-0.0167852
-0.00639536
-0.00733904
-0.020353
-0.0300579
-0.0366633
-0.0413356
-0.0449056
-0.045661
-0.0423466
-0.0338118
-0.0177489
0.00269202
0.024135
0.0471948
0.0661787
0.0790841
0.0935469
0.109215
0.120595
0.12325
0.113058
0.0945851
0.0767142
0.06706
0.0696574
0.0789441
0.0835231
0.0761138
0.0586615
0.038686
0.0236793
0.0124511
-0.000208703
-0.0185606
-0.0429384
-0.0663238
-0.0833576
-0.0883321
-0.0822086
-0.0675913
-0.0492653
-0.0314701
-0.0162459
-0.00525869
0.0024758
0.0068733
0.00959949
0.010723
0.0113834
0.0115054
0.0115943
0.0115944
0.0115055
0.0113836
0.0107233
0.00959991
0.00687381
0.00247646
-0.00525794
-0.016245
-0.0314691
-0.0492643
-0.0675905
-0.082208
-0.0883317
-0.0833575
-0.0663238
-0.0429385
-0.0185607
-0.000209249
0.01245
0.0236776
0.0386839
0.05866
0.0761131
0.0835228
0.0789435
0.0696559
0.0670583
0.0767141
0.0945874
0.113063
0.123257
0.1206
0.109219
0.0935483
0.0790845
0.0661803
0.0471963
0.0241348
0.00269019
-0.0177533
-0.0338178
-0.0423519
-0.0456651
-0.0449084
-0.0413371
-0.0366647
-0.0300597
-0.0203549
-0.00733989
-0.00662546
-0.0199655
-0.0322688
-0.042382
-0.0501101
-0.051844
-0.0441679
-0.0300721
-0.0115058
0.0107287
0.0309864
0.0495113
0.0691942
0.0841656
0.0935469
0.101779
0.108675
0.114143
0.113452
0.101894
0.0835835
0.0645411
0.0531337
0.0558543
0.0692193
0.0817558
0.0827006
0.0694704
0.048938
0.030866
0.0167953
0.00387374
-0.0145053
-0.0396419
-0.0665871
-0.0892957
-0.100187
-0.0992909
-0.0870673
-0.0694888
-0.050001
-0.0326439
-0.0187176
-0.00854729
-0.0018143
0.00262403
0.00514467
0.00674844
0.00750186
0.00788959
0.00788961
0.00750188
0.0067485
0.00514471
0.00262409
-0.00181429
-0.00854728
-0.0187176
-0.032644
-0.0500012
-0.0694892
-0.087068
-0.0992919
-0.100188
-0.0892971
-0.0665881
-0.0396428
-0.0145059
0.00387316
0.0167944
0.0308651
0.0489374
0.0694707
0.0827017
0.0817568
0.0692191
0.0558528
0.0531316
0.0645403
0.0835848
0.101897
0.113457
0.114147
0.108678
0.101781
0.0935482
0.0841673
0.0691962
0.0495124
0.0309874
0.0107286
-0.0115084
-0.0300764
-0.044174
-0.0518509
-0.0501153
-0.0423849
-0.0322707
-0.0199667
-0.00662579
-0.00565358
-0.0181995
-0.0310218
-0.0412826
-0.0474014
-0.0452011
-0.0328687
-0.0140086
0.00995552
0.0351549
0.0551035
0.0729655
0.0910938
0.103699
0.109215
0.108675
0.105762
0.104399
0.0990195
0.0863001
0.0684733
0.0486954
0.0358131
0.0376182
0.0537873
0.0744548
0.086059
0.0809305
0.0639437
0.0451955
0.029827
0.0174556
0.000212199
-0.0239109
-0.0533791
-0.0809197
-0.0987977
-0.1046
-0.0974378
-0.0831757
-0.0646547
-0.0476083
-0.0327697
-0.0221482
-0.0145316
-0.00986848
-0.00691815
-0.00530201
-0.00440666
-0.0040372
-0.00403721
-0.00440676
-0.00530213
-0.00691837
-0.00986874
-0.014532
-0.0221487
-0.0327702
-0.047609
-0.0646555
-0.0831767
-0.0974389
-0.104602
-0.098799
-0.080921
-0.05338
-0.0239112
0.000212261
0.017456
0.0298273
0.0451962
0.063945
0.0809326
0.0860614
0.074456
0.0537865
0.0376155
0.0358096
0.048693
0.068473
0.0863014
0.0990223
0.104402
0.105764
0.108678
0.109219
0.103703
0.0910973
0.0729677
0.0551055
0.0351567
0.00995489
-0.0140122
-0.0328746
-0.0452086
-0.0474081
-0.0412872
-0.0310245
-0.0182004
-0.00565358
-0.00473302
-0.0148324
-0.0238105
-0.0288702
-0.0292459
-0.0230901
-0.0104927
0.00708961
0.030095
0.0536489
0.0723791
0.0894307
0.105625
0.117122
0.120595
0.114143
0.104399
0.096582
0.0869479
0.074019
0.0567773
0.0367829
0.0215892
0.018952
0.0328112
0.0566962
0.0762305
0.0798094
0.068945
0.0523725
0.0389059
0.0297988
0.0176479
-0.0011978
-0.0287778
-0.0572811
-0.0800602
-0.0911993
-0.0895565
-0.0789848
-0.0627633
-0.0468603
-0.0323371
-0.0221088
-0.014571
-0.0104378
-0.00774783
-0.0066572
-0.00598697
-0.00583128
-0.0058313
-0.00598708
-0.00665735
-0.00774805
-0.010438
-0.0145713
-0.0221091
-0.0323373
-0.0468605
-0.0627634
-0.0789849
-0.0895565
-0.0911994
-0.0800601
-0.0572807
-0.028777
-0.00119647
0.0176491
0.0298
0.0389066
0.0523732
0.0689462
0.079811
0.0762319
0.0566961
0.0328088
0.0189481
0.021585
0.0367797
0.0567761
0.0740191
0.0869492
0.0965845
0.104402
0.114147
0.1206
0.117127
0.105629
0.0894333
0.0723808
0.0536505
0.0300949
0.00708673
-0.0104971
-0.0230952
-0.0292511
-0.0288749
-0.023814
-0.0148341
-0.00473328
-0.00225068
-0.00609269
-0.007382
-0.00524009
0.00049168
0.010323
0.0219762
0.0347261
0.0513761
0.069427
0.0846539
0.0978274
0.110081
0.120596
0.12325
0.113452
0.0990195
0.0869479
0.0768177
0.0664112
0.0521188
0.034481
0.017769
0.00974361
0.0180348
0.0402832
0.0635004
0.07333
0.0667795
0.050608
0.0365806
0.0277862
0.0195263
0.00578105
-0.0176804
-0.0444189
-0.0688948
-0.082269
-0.0836467
-0.0739126
-0.0578322
-0.0402739
-0.0240124
-0.0117102
-0.00256761
0.00281941
0.00635978
0.00794407
0.00892104
0.00918808
0.00918808
0.00892108
0.00794412
0.00635989
0.00281952
-0.00256741
-0.01171
-0.0240121
-0.0402736
-0.0578318
-0.0739123
-0.0836465
-0.0822687
-0.0688945
-0.0444182
-0.0176797
0.00578213
0.0195271
0.0277866
0.0365807
0.050608
0.0667801
0.0733308
0.0635006
0.0402818
0.0180316
0.00973957
0.0177656
0.0344787
0.0521178
0.0664111
0.0768181
0.0869492
0.0990223
0.113457
0.123257
0.120601
0.110085
0.0978294
0.0846549
0.0694276
0.0513756
0.0347245
0.0219744
0.0103209
0.000488884
-0.0052432
-0.00738477
-0.00609446
-0.0022512
0.00238824
0.00834816
0.0163573
0.0254466
0.0362169
0.0488192
0.059225
0.0669034
0.0765594
0.0880759
0.0974614
0.10308
0.107368
0.112891
0.113058
0.101894
0.0863001
0.074019
0.0664112
0.0602463
0.0511376
0.037968
0.0222847
0.0112034
0.0137652
0.0323214
0.0566266
0.0709001
0.0674785
0.0506018
0.0333038
0.0214246
0.0138212
0.00254425
-0.0174345
-0.0431044
-0.068878
-0.0850157
-0.0896522
-0.0812915
-0.065709
-0.0463591
-0.0282711
-0.0131606
-0.00203139
0.00544429
0.0102084
0.0128743
0.0143677
0.014952
0.0149521
0.0143679
0.0128745
0.0102086
0.00544454
-0.00203106
-0.0131603
-0.0282707
-0.0463588
-0.0657088
-0.0812913
-0.0896523
-0.0850158
-0.0688784
-0.0431045
-0.0174347
0.00254411
0.0138208
0.0214237
0.0333029
0.0506013
0.0674789
0.0709009
0.0566268
0.0323201
0.0137625
0.0112006
0.0222827
0.0379671
0.0511374
0.0602463
0.0664111
0.0740191
0.0863014
0.101897
0.113063
0.112896
0.107371
0.103082
0.0974628
0.0880766
0.076559
0.066903
0.0592257
0.04882
0.0362166
0.0254458
0.0163564
0.00834741
0.00238792
0.00748284
0.0237359
0.0409182
0.0562833
0.0706233
0.085084
0.096063
0.102093
0.106652
0.111315
0.113402
0.109134
0.101658
0.0981322
0.0945851
0.0835835
0.0684733
0.0567773
0.0521188
0.0511376
0.0481957
0.0407707
0.0286532
0.0167279
0.0147422
0.0294732
0.0542864
0.0737679
0.0755924
0.0604518
0.0406576
0.0251028
0.0158815
0.00498835
-0.0133317
-0.039689
-0.0681328
-0.0895851
-0.0995897
-0.0957539
-0.0828802
-0.0642278
-0.0458427
-0.0293384
-0.0170786
-0.00817771
-0.00264208
0.000830052
0.00263685
0.00346384
0.00346381
0.00263685
0.000830001
-0.00264214
-0.0081778
-0.0170788
-0.0293385
-0.0458429
-0.064228
-0.0828806
-0.0957544
-0.0995904
-0.0895858
-0.0681335
-0.0396895
-0.013332
0.00498801
0.015881
0.025102
0.040657
0.0604519
0.0755934
0.0737692
0.0542868
0.0294721
0.0147402
0.0167264
0.0286527
0.040771
0.048196
0.0511375
0.0521178
0.0567761
0.068473
0.0835847
0.0945874
0.0981341
0.10166
0.109136
0.113404
0.111317
0.106653
0.102094
0.0960653
0.0850863
0.0706249
0.0562847
0.0409193
0.0237362
0.00748278
0.0112684
0.0351722
0.0592844
0.079648
0.0972744
0.11453
0.128339
0.135254
0.136505
0.135399
0.131233
0.118399
0.0995458
0.0856498
0.0767142
0.0645411
0.0486954
0.0367829
0.034481
0.037968
0.0407707
0.0394637
0.0319989
0.0211332
0.0162912
0.0270712
0.0516245
0.0761777
0.0847112
0.0738289
0.0536071
0.0354664
0.0246299
0.0145423
-0.0015487
-0.0270809
-0.0570612
-0.0830713
-0.0984316
-0.0999754
-0.0906659
-0.0741538
-0.0563071
-0.0396411
-0.0268247
-0.0173775
-0.0114543
-0.00771881
-0.00580734
-0.00492433
-0.00492436
-0.00580742
-0.00771895
-0.0114545
-0.0173778
-0.026825
-0.0396414
-0.0563075
-0.0741543
-0.0906665
-0.0999761
-0.0984324
-0.083072
-0.0570618
-0.0270812
-0.00154875
0.0145422
0.0246297
0.0354662
0.0536073
0.0738299
0.084713
0.0761794
0.051625
0.0270704
0.0162899
0.0211326
0.0319994
0.0394645
0.040771
0.0379672
0.0344787
0.0367798
0.048693
0.0645402
0.076714
0.0856495
0.0995462
0.118402
0.131237
0.135403
0.136509
0.135257
0.128343
0.114533
0.0972765
0.0796504
0.0592865
0.035173
0.0112684
0.0132508
0.0411225
0.0690369
0.0930442
0.113957
0.133563
0.149477
0.158242
0.158553
0.153749
0.146205
0.129742
0.103989
0.0814767
0.06706
0.0531337
0.0358131
0.0215892
0.017769
0.0222847
0.0286532
0.0319989
0.0293798
0.0213195
0.0150839
0.0221302
0.0453389
0.073728
0.0894043
0.084503
0.0658148
0.0463136
0.0342428
0.0253691
0.0125142
-0.0103114
-0.0397708
-0.0683115
-0.0878156
-0.0938898
-0.0879273
-0.0733608
-0.0560032
-0.03904
-0.0255083
-0.0153837
-0.00891477
-0.00484893
-0.00275241
-0.00179782
-0.00179784
-0.00275246
-0.00484901
-0.00891488
-0.0153838
-0.0255085
-0.0390401
-0.0560034
-0.073361
-0.0879275
-0.0938902
-0.0878159
-0.0683118
-0.0397709
-0.0103112
0.0125146
0.0253693
0.0342429
0.0463137
0.0658154
0.0845046
0.0894065
0.0737298
0.0453394
0.0221294
0.015083
0.0213194
0.0293804
0.0319994
0.0286527
0.0222827
0.0177656
0.021585
0.0358096
0.0531316
0.0670583
0.0814753
0.103989
0.129746
0.14621
0.153754
0.158558
0.158247
0.149482
0.133567
0.113959
0.0930464
0.0690388
0.0411232
0.0132508
0.0141733
0.0437131
0.0730341
0.0987301
0.120992
0.140087
0.155463
0.165405
0.165419
0.158324
0.150979
0.136979
0.111336
0.0860815
0.0696574
0.0558543
0.0376182
0.018952
0.00974361
0.0112034
0.0167279
0.0211332
0.0213195
0.0153986
0.0084631
0.0121951
0.0332361
0.0646048
0.087709
0.0903235
0.0751835
0.0554444
0.0420689
0.0339726
0.0241212
0.00462632
-0.0232095
-0.0531414
-0.0759087
-0.0861395
-0.083348
-0.070718
-0.0537306
-0.036266
-0.021715
-0.0105607
-0.00322681
0.0014507
0.00391506
0.00504249
0.00504248
0.00391503
0.00145066
-0.00322687
-0.0105608
-0.0217151
-0.036266
-0.0537307
-0.0707181
-0.0833481
-0.0861396
-0.0759088
-0.0531413
-0.0232091
0.00462691
0.0241219
0.0339732
0.0420694
0.055445
0.0751847
0.0903255
0.0877112
0.0646061
0.0332358
0.0121938
0.00846182
0.015398
0.0213194
0.0211326
0.0167263
0.0112005
0.00973954
0.018948
0.0376154
0.0558527
0.0696558
0.0860801
0.111337
0.136983
0.150984
0.158329
0.165424
0.16541
0.155468
0.14009
0.120994
0.0987322
0.0730357
0.0437135
0.0141731
0.0148941
0.0451835
0.0739988
0.099021
0.120143
0.135581
0.146871
0.155349
0.15428
0.14581
0.140612
0.132946
0.114096
0.0928231
0.0789441
0.0692193
0.0537873
0.0328112
0.0180348
0.0137652
0.0147422
0.0162912
0.0150839
0.0084631
-0.000607775
-0.00171516
0.015133
0.0472733
0.0766882
0.0875663
0.0777774
0.0591778
0.0450435
0.0374812
0.0304833
0.0148904
-0.0104287
-0.0404737
-0.0657617
-0.0796314
-0.079991
-0.0693674
-0.0528186
-0.0348665
-0.0191346
-0.00681062
0.00163152
0.00706324
0.0100485
0.0114027
0.0114027
0.0100485
0.00706325
0.00163153
-0.00681059
-0.0191346
-0.0348665
-0.0528185
-0.0693673
-0.0799909
-0.0796314
-0.0657616
-0.0404735
-0.0104282
0.0148911
0.030484
0.0374818
0.045044
0.0591784
0.0777787
0.0875682
0.0766898
0.0472736
0.0151316
-0.00171743
-0.000609808
0.00846178
0.0150829
0.0162899
0.0147402
0.0137625
0.0180316
0.0328088
0.0537865
0.0692191
0.0789436
0.0928224
0.114097
0.13295
0.140615
0.145813
0.154284
0.155354
0.146875
0.135584
0.120146
0.0990233
0.0740004
0.0451841
0.014894
0.0151037
0.0447188
0.0711174
0.0937055
0.112065
0.121919
0.127058
0.132472
0.129851
0.120135
0.116496
0.115312
0.105953
0.0920053
0.0835231
0.0817558
0.0744548
0.0566962
0.0402832
0.0323214
0.0294732
0.0270712
0.0221302
0.0121951
-0.00171516
-0.0105976
-0.00201649
0.0260349
0.0577837
0.0750385
0.0704569
0.0536273
0.0391388
0.032066
0.0283661
0.0175275
-0.00352163
-0.0318818
-0.0581201
-0.0745395
-0.0776503
-0.0687819
-0.0528307
-0.034335
-0.0175616
-0.00397566
0.00552967
0.0117939
0.0152884
0.0168962
0.0168962
0.0152884
0.0117939
0.00552979
-0.0039755
-0.0175614
-0.0343348
-0.0528304
-0.0687816
-0.07765
-0.0745392
-0.0581198
-0.0318813
-0.00352103
0.0175281
0.0283666
0.0320661
0.0391388
0.0536273
0.0704575
0.0750393
0.057784
0.0260337
-0.00201917
-0.0106006
-0.00171748
0.0121937
0.0221293
0.0270703
0.0294721
0.0323201
0.0402818
0.0566961
0.074456
0.0817568
0.0835229
0.0920049
0.105954
0.115314
0.116496
0.120136
0.129854
0.132475
0.12706
0.121922
0.112068
0.093708
0.0711193
0.0447199
0.0151039
0.0137707
0.039677
0.0612417
0.0799743
0.0949333
0.099757
0.100101
0.103189
0.0997657
0.0896431
0.0860635
0.0883994
0.0870471
0.0798276
0.0761138
0.0827006
0.086059
0.0762305
0.0635004
0.0566266
0.0542864
0.0516245
0.0453389
0.0332361
0.015133
-0.00201649
-0.00414646
0.0155393
0.0447917
0.0646759
0.0628003
0.0459798
0.028858
0.0197413
0.0168391
0.00902509
-0.00834465
-0.0351431
-0.0618504
-0.0807461
-0.086355
-0.0793613
-0.0638745
-0.0447518
-0.0266455
-0.0114807
-0.000569925
0.00683364
0.0110491
0.0130298
0.0130298
0.0110491
0.00683366
-0.000569899
-0.0114806
-0.0266454
-0.0447518
-0.0638744
-0.0793613
-0.086355
-0.0807462
-0.0618505
-0.0351431
-0.00834454
0.00902511
0.0168389
0.0197407
0.0288573
0.0459792
0.0628002
0.064676
0.044791
0.0155373
-0.00414949
-0.00201919
0.0151316
0.0332358
0.0453393
0.051625
0.0542868
0.0566269
0.0635007
0.0762319
0.0860614
0.0827017
0.0761132
0.079827
0.0870473
0.0883997
0.0860625
0.0896421
0.0997672
0.103191
0.100102
0.0997595
0.0949367
0.0799767
0.0612436
0.0396784
0.0137712
0.0103106
0.0284966
0.042355
0.0558312
0.0673748
0.0693565
0.0681539
0.0710555
0.0691031
0.0610232
0.0570713
0.0603334
0.0645739
0.0612996
0.0586615
0.0694704
0.0809305
0.0798094
0.07333
0.0709001
0.0737679
0.0761777
0.073728
0.0646048
0.0472733
0.0260349
0.0155393
0.0262677
0.0506022
0.0702751
0.0685839
0.0495016
0.0267491
0.0121244
0.0062708
-0.00141825
-0.017118
-0.0433784
-0.0711257
-0.0930231
-0.10162
-0.0972164
-0.0826786
-0.0634967
-0.0442702
-0.0277855
-0.0154755
-0.00700935
-0.00203684
0.000302729
0.000302728
-0.00203687
-0.00700938
-0.0154756
-0.0277856
-0.0442703
-0.0634969
-0.0826789
-0.0972167
-0.101621
-0.0930237
-0.0711264
-0.043379
-0.0171187
-0.00141909
0.00626976
0.0121229
0.0267478
0.0495007
0.0685837
0.0702752
0.0506016
0.0262662
0.0155374
0.0260338
0.0472736
0.0646061
0.0737298
0.0761795