/*--------------------------------*- C++ -*----------------------------------*\
  =========                 |
  \\      /  F ield         | OpenFOAM: The Open Source CFD Toolbox
   \\    /   O peration     | Website:  https://openfoam.org
    \\  /    A nd           | Version:  10
     \\/     M anipulation  |
\*---------------------------------------------------------------------------*/
FoamFile
{
    format      ascii;
    class       volScalarField;
    location    "22";
    object      h;
}
// * * * * * * * * * * * * * * * * * * * * * * * * * * * * * * * * * * * * * //

dimensions      [0 1 0 0 0 0 0];

internalField   nonuniform List<scalar> 
10000
(
-0.000248821
0.00257443
0.0119655
0.0245721
0.0337067
0.0350274
0.0293947
0.0214166
0.0154374
0.0121468
0.00882675
0.00306601
-0.00425412
-0.0100544
-0.0123877
-0.0118485
-0.0101241
-0.00821181
-0.00619146
-0.00393081
-0.00158318
0.000329129
0.00117756
0.000669617
-0.000951019
-0.00303349
-0.00477924
-0.00553624
-0.0049963
-0.00322198
-0.000566622
0.00246563
0.00536895
0.00773788
0.00932076
0.0100286
0.00990389
0.00908228
0.00774558
0.00608505
0.00427637
0.00246223
0.00074998
-0.000790108
-0.00211659
-0.00321195
-0.00407331
-0.00470703
-0.00512225
-0.00532747
-0.00532752
-0.00512237
-0.00470721
-0.00407353
-0.00321216
-0.00211674
-0.000790144
0.00075013
0.00246264
0.00427711
0.00608617
0.00774709
0.00908417
0.00990608
0.0100309
0.009323
0.00773975
0.00537017
0.00246598
-0.000567253
-0.00322351
-0.00499844
-0.00553851
-0.00478112
-0.00303452
-0.000951041
0.000670407
0.00117867
0.000329994
-0.00158287
-0.00393092
-0.00619154
-0.0082115
-0.0101236
-0.0118485
-0.0123888
-0.0100561
-0.00425512
0.00306644
0.00882766
0.0121467
0.0154364
0.0214162
0.0293965
0.0350313
0.0337108
0.0245737
0.0119633
0.00257047
-0.000250756
0.00257443
0.0144266
0.0397353
0.0717203
0.0955377
0.100096
0.0860687
0.0642908
0.0461642
0.0345906
0.0241599
0.00951993
-0.00829503
-0.0238695
-0.0331841
-0.0359478
-0.033812
-0.0284397
-0.021241
-0.0135329
-0.00648249
-0.00112575
0.00182571
0.0023169
0.000902667
-0.00150191
-0.00388206
-0.0054323
-0.00571941
-0.00468299
-0.00257174
0.000190611
0.00314363
0.00587828
0.00810157
0.00965337
0.0104886
0.0106595
0.0102725
0.00946561
0.00838016
0.00714527
0.00587128
0.00464197
0.00352097
0.00254904
0.00175382
0.0011494
0.000744117
0.000540807
0.000540805
0.000744116
0.00114941
0.00175387
0.00254917
0.0035212
0.00464236
0.00587187
0.00714611
0.00838128
0.00946703
0.0102742
0.0106615
0.0104906
0.00965535
0.00810328
0.0058795
0.00314414
0.00019026
-0.00257298
-0.00468498
-0.00572183
-0.00543465
-0.00388382
-0.00150265
0.000903124
0.00231833
0.00182756
-0.00112421
-0.00648181
-0.0135332
-0.0212419
-0.0284407
-0.0338128
-0.0359489
-0.0331858
-0.0238714
-0.00829573
0.00952104
0.024161
0.0345893
0.0461611
0.0642902
0.0860742
0.100107
0.0955483
0.0717244
0.039731
0.0144185
0.00257049
0.0119655
0.0397353
0.0754297
0.114263
0.143404
0.150664
0.13485
0.10686
0.0794785
0.0573216
0.0372352
0.0154285
-0.00824995
-0.0310043
-0.0489292
-0.0584012
-0.057895
-0.0493383
-0.0369906
-0.0247566
-0.0147636
-0.00750923
-0.00239382
0.00143976
0.00440817
0.00649835
0.00747939
0.00712079
0.0054417
0.00273995
-0.000503377
-0.00372945
-0.00644526
-0.00831413
-0.00916982
-0.00902366
-0.00800909
-0.00633185
-0.00423015
-0.00192078
0.000404776
0.00260998
0.00459849
0.00631966
0.00775315
0.00890173
0.00978221
0.0104157
0.0108244
0.0110241
0.0110242
0.0108246
0.010416
0.00978259
0.00890216
0.00775358
0.00632002
0.0045987
0.00260996
0.000404444
-0.00192151
-0.00423133
-0.00633349
-0.00801116
-0.00902602
-0.0091723
-0.00831645
-0.00644712
-0.00373058
-0.000503591
0.00274068
0.00544321
0.00712273
0.00748131
0.00649985
0.00440907
0.00144013
-0.00239369
-0.00750903
-0.0147634
-0.0247568
-0.0369918
-0.049341
-0.0578988
-0.0584044
-0.0489307
-0.031004
-0.00824872
0.0154295
0.0372349
0.0573192
0.0794754
0.10686
0.134858
0.150677
0.143417
0.11427
0.0754287
0.0397311
0.0119634
0.0245721
0.0717203
0.114263
0.150224
0.174762
0.182048
0.171479
0.14846
0.11888
0.0860264
0.0520899
0.0188507
-0.012935
-0.0418696
-0.063872
-0.0742112
-0.071991
-0.0612213
-0.0473662
-0.0342453
-0.0236647
-0.0157158
-0.0094075
-0.00391285
0.00103932
0.00537476
0.00871432
0.0106827
0.0111389
0.0101389
0.00794922
0.00497866
0.00164791
-0.00164486
-0.0045807
-0.00696258
-0.00867344
-0.00970679
-0.0101108
-0.00998091
-0.00944156
-0.00861022
-0.00761381
-0.0065481
-0.00550695
-0.00455211
-0.00373934
-0.00310133
-0.00266472
-0.00244266
-0.00244269
-0.00266481
-0.0031015
-0.00373961
-0.00455251
-0.0055075
-0.00654885
-0.00761479
-0.00861144
-0.00944304
-0.00998262
-0.0101127
-0.0097088
-0.00867542
-0.00696439
-0.00458214
-0.00164575
0.00164774
0.00497931
0.00795069
0.0101411
0.0111414
0.0106852
0.00871634
0.00537587
0.00103932
-0.00391382
-0.009409
-0.0157172
-0.0236654
-0.0342453
-0.0473661
-0.0612223
-0.0719938
-0.0742152
-0.0638754
-0.0418713
-0.0129356
0.0188501
0.0520895
0.0860269
0.118882
0.148463
0.171486
0.182059
0.174773
0.150233
0.11427
0.0717245
0.0245737
0.0337067
0.0955377
0.143404
0.174762
0.19203
0.199557
0.199043
0.186863
0.158592
0.116414
0.0685744
0.0221534
-0.0195428
-0.0534023
-0.0752098
-0.0831027
-0.0796997
-0.069462
-0.0557625
-0.041308
-0.0285423
-0.0186048
-0.0116555
-0.00746281
-0.00510148
-0.00348313
-0.00185275
0.000308965
0.00309153
0.00621393
0.00928859
0.0118815
0.0136377
0.0143998
0.0141308
0.0129451
0.0110534
0.00867014
0.00605329
0.00338398
0.000836465
-0.001489
-0.00352579
-0.00524422
-0.00665082
-0.0077558
-0.00859454
-0.00918882
-0.00957086
-0.00975572
-0.00975579
-0.00957107
-0.00918916
-0.00859499
-0.00775633
-0.00665138
-0.00524476
-0.00352624
-0.00148929
0.000836432
0.00338428
0.006054
0.00867129
0.011055
0.0129471
0.014133
0.0144021
0.0136399
0.0118832
0.00928964
0.0062142
0.00309103
0.000307854
-0.00185417
-0.00348453
-0.00510265
-0.00746361
-0.011656
-0.0186051
-0.0285424
-0.0413076
-0.0557617
-0.069461
-0.0796999
-0.0831057
-0.0752156
-0.0534089
-0.0195483
0.0221503
0.0685747
0.116418
0.1586
0.186871
0.199049
0.199561
0.192038
0.174773
0.143417
0.0955484
0.0337109
0.0350274
0.100096
0.150664
0.182048
0.199557
0.212734
0.221685
0.215266
0.185693
0.138364
0.084698
0.0324161
-0.014318
-0.0516279
-0.0767857
-0.0898541
-0.0921098
-0.0842491
-0.0683243
-0.0491854
-0.031444
-0.0175561
-0.00875569
-0.00468479
-0.00370102
-0.00435494
-0.00535767
-0.00570219
-0.0050228
-0.00323037
-0.000459903
0.00291615
0.00653726
0.0100565
0.0131312
0.0155988
0.0173136
0.0182663
0.0185203
0.0181505
0.0173293
0.0161586
0.0148161
0.013394
0.012022
0.0107664
0.00970171
0.00886682
0.00829578
0.00800563
0.00800567
0.00829587
0.008867
0.009702
0.0107668
0.0120226
0.0133948
0.0148172
0.01616
0.017331
0.0181524
0.0185224
0.0182685
0.0173158
0.0156008
0.0131329
0.0100576
0.00653772
0.00291584
-0.000461012
-0.0032322
-0.00502512
-0.00570471
-0.00535999
-0.00435658
-0.00370169
-0.00468433
-0.00875412
-0.017554
-0.031442
-0.0491841
-0.0683243
-0.0842505
-0.0921119
-0.0898576
-0.0767915
-0.0516354
-0.0143248
0.0324121
0.0846981
0.138369
0.185704
0.215279
0.221694
0.212738
0.199562
0.182059
0.150677
0.100107
0.0350314
0.0293947
0.0860687
0.13485
0.171479
0.199043
0.221685
0.233946
0.225617
0.195253
0.151009
0.101455
0.0519647
0.00621074
-0.0338203
-0.0673681
-0.092293
-0.104129
-0.100221
-0.0842205
-0.0629756
-0.0413504
-0.0228018
-0.00946301
-0.000912671
0.00372919
0.00515687
0.00456383
0.00273737
0.000259304
-0.00218127
-0.00419803
-0.00554191
-0.0059916
-0.00559948
-0.0044457
-0.00264589
-0.000471856
0.00197672
0.00444877
0.00685726
0.00908178
0.0110482
0.0127565
0.014155
0.0153058
0.0161821
0.016856
0.0173186
0.0176217
0.0177641
0.0177642
0.0176219
0.0173189
0.0168564
0.0161826
0.0153064
0.0141555
0.0127571
0.0110486
0.00908207
0.00685732
0.00444855
0.00197618
-0.000472764
-0.00264713
-0.00444727
-0.00560125
-0.00599346
-0.00554371
-0.00419957
-0.00218245
0.000258597
0.0027372
0.00456411
0.00515762
0.00373042
-0.000911044
-0.00946085
-0.0227993
-0.0413484
-0.0629747
-0.0842218
-0.100225
-0.104135
-0.0922993
-0.0673731
-0.0338244
0.00620741
0.0519629
0.101455
0.151012
0.195261
0.22563
0.233959
0.221694
0.199049
0.171486
0.134858
0.0860742
0.0293965
0.0214166
0.0642908
0.10686
0.14846
0.186863
0.215266
0.225617
0.216665
0.193315
0.159489
0.118122
0.0743197
0.0321157
-0.00842663
-0.0473859
-0.0805281
-0.101052
-0.106227
-0.0988322
-0.0821078
-0.0598148
-0.0375965
-0.0186708
-0.00388125
0.00592264
0.0114326
0.0138152
0.0135827
0.0116147
0.00858355
0.00484532
0.000945964
-0.00271112
-0.00593293
-0.00835287
-0.00996038
-0.0107039
-0.0105883
-0.00985556
-0.00850696
-0.00686897
-0.00496612
-0.00304775
-0.00116303
0.000558876
0.00206319
0.00330941
0.00425482
0.00489874
0.00521878
0.00521878
0.00489875
0.00425482
0.00330938
0.00206308
0.000558653
-0.00116342
-0.00304837
-0.00496701
-0.00687016
-0.00850847
-0.00985739
-0.0105904
-0.0107062
-0.00996268
-0.00835505
-0.00593483
-0.00271253
0.000945134
0.00484518
0.00858414
0.0116159
0.0135845
0.0138174
0.0114349
0.00592502
-0.00387912
-0.0186693
-0.0375956
-0.0598151
-0.0821099
-0.0988357
-0.106232
-0.10106
-0.080535
-0.04739
-0.0084279
0.0321159
0.0743207
0.118124
0.159492
0.193321
0.216675
0.22563
0.215279
0.186871
0.148463
0.10686
0.0642902
0.0214162
0.0154374
0.0461642
0.0794785
0.11888
0.158592
0.185693
0.195253
0.193315
0.183346
0.162079
0.129698
0.0924751
0.0553143
0.01873
-0.017825
-0.0522006
-0.0801926
-0.0987533
-0.104753
-0.0962168
-0.0777782
-0.0560982
-0.034521
-0.0163587
-0.00327678
0.00586786
0.0115353
0.0145128
0.0159679
0.0161969
0.0155642
0.0144862
0.0129222
0.0110412
0.00904354
0.00677155
0.00458277
0.00232097
0.000186659
-0.00177386
-0.00360927
-0.00512253
-0.00651041
-0.00755648
-0.00847901
-0.00912107
-0.00965124
-0.0099837
-0.0102175
-0.0103184
-0.0103185
-0.0102177
-0.009984
-0.00965164
-0.00912156
-0.00847956
-0.00755704
-0.00651098
-0.00512304
-0.00360971
-0.00177418
0.000186476
0.00232096
0.00458294
0.00677186
0.00904404
0.0110418
0.0129229
0.0144871
0.0155651
0.016198
0.0159691
0.0145141
0.0115368
0.00586934
-0.00327543
-0.0163575
-0.0345208
-0.0560994
-0.0777807
-0.0962214
-0.104759
-0.0987581
-0.0801965
-0.0522038
-0.0178268
0.01873
0.0553154
0.0924773
0.129702
0.162085
0.183352
0.193321
0.195261
0.185704
0.1586
0.118882
0.0794754
0.0461611
0.0154363
0.0121468
0.0345906
0.0573216
0.0860264
0.116414
0.138364
0.151009
0.159489
0.162079
0.152927
0.13167
0.103389
0.073744
0.0449598
0.0152789
-0.0166075
-0.0493703
-0.0782405
-0.0950366
-0.0967611
-0.0877989
-0.0713444
-0.0512728
-0.0330898
-0.0178728
-0.00581092
0.00256125
0.00870487
0.0132789
0.0164821
0.0189392
0.0206731
0.0214679
0.0216588
0.0209833
0.0195769
0.0177468
0.0152705
0.0127898
0.0100033
0.00742661
0.0049178
0.00267139
0.000729057
-0.000967507
-0.0022849
-0.00338177
-0.00412635
-0.00465619
-0.00489509
-0.00489515
-0.00465637
-0.00412663
-0.00338215
-0.00228532
-0.000967971
0.00072863
0.00267102
0.00491759
0.00742659
0.0100036
0.0127904
0.0152714
0.0177481
0.0195784
0.0209851
0.0216608
0.0214698
0.0206749
0.0189406
0.0164833
0.0132799
0.00870536
0.00256149
-0.00581089
-0.0178734
-0.0330908
-0.0512745
-0.0713476
-0.0878028
-0.0967656
-0.0950418
-0.0782442
-0.049371
-0.0166062
0.0152808
0.0449613
0.0737453
0.103391
0.131674
0.152933
0.162085
0.159492
0.151012
0.138369
0.116418
0.0860269
0.0573192
0.0345893
0.0121467
0.00882675
0.0241599
0.0372352
0.0520899
0.0685744
0.084698
0.101455
0.118122
0.129698
0.13167
0.122711
0.105515
0.0854638
0.0647648
0.0417857
0.0147315
-0.0169928
-0.0483779
-0.0712334
-0.0834442
-0.0846136
-0.0745649
-0.0595209
-0.043973
-0.0287442
-0.0165141
-0.0072293
0.000186188
0.00535553
0.00899975
0.0116854
0.0132895
0.0142827
0.0150891
0.0153753
0.0159238
0.0162864
0.0167358
0.0173517
0.017716
0.0183776
0.0186271
0.0191142
0.0192344
0.019482
0.0195002
0.0195726
0.0195464
0.0195477
0.0195317
0.0195318
0.0195478
0.0195467
0.0195729
0.0195006
0.0194824
0.0192348
0.0191147
0.0186275
0.018378
0.0177163
0.017352
0.0167359
0.0162865
0.015924
0.0153754
0.0150895
0.0142832
0.0132902
0.0116862
0.00900037
0.00535598
0.000186217
-0.00723
-0.0165152
-0.0287459
-0.0439756
-0.0595236
-0.0745683
-0.0846175
-0.0834472
-0.0712356
-0.0483792
-0.0169916
0.0147349
0.0417897
0.0647682
0.0854661
0.105517
0.122714
0.131674
0.129702
0.118124
0.101455
0.0846981
0.0685747
0.0520895
0.0372349
0.0241609
0.00882764
0.00306601
0.00951993
0.0154285
0.0188507
0.0221534
0.0324161
0.0519647
0.0743197
0.0924751
0.103389
0.105515
0.0993917
0.0872006
0.0711208
0.053832
0.0343564
0.0094437
-0.0175872
-0.0416965
-0.059832
-0.0665525
-0.0628129
-0.0546218
-0.0431346
-0.031525
-0.0227237
-0.0153388
-0.00987572
-0.00611861
-0.00280781
6.81874e-05
0.00259585
0.00548271
0.00822777
0.0108806
0.0137859
0.0159563
0.0183844
0.0199974
0.0215218
0.022582
0.0232296
0.0238063
0.0238708
0.0240974
0.0239058
0.023942
0.0237369
0.0237175
0.023635
0.0236351
0.0237177
0.0237372
0.0239424
0.0239064
0.0240982
0.0238716
0.0238073
0.0232307
0.0225832
0.021523
0.0199985
0.0183854
0.015957
0.0137864
0.0108806
0.00822753
0.00548218
0.00259493
6.71469e-05
-0.00280911
-0.00612019
-0.00987736
-0.0153409
-0.022726
-0.0315271
-0.0431369
-0.0546239
-0.0628142
-0.0665539
-0.0598326
-0.0416954
-0.0175855
0.0094462
0.0343596
0.0538349
0.0711239
0.0872038
0.0993941
0.105517
0.103391
0.0924773
0.0743207
0.0519629
0.0324121
0.0221503
0.0188501
0.0154295
0.00952101
0.00306643
-0.00425412
-0.00829503
-0.00824995
-0.012935
-0.0195428
-0.014318
0.00621074
0.0321157
0.0553143
0.073744
0.0854638
0.0872006
0.0780292
0.0641602
0.0527633
0.0410108
0.0241973
0.00377045
-0.01864
-0.0373148
-0.0454814
-0.0455979
-0.0396631
-0.0295064
-0.0212646
-0.0153668
-0.0112533
-0.00960762
-0.00833557
-0.00674174
-0.00499176
-0.00269839
9.51629e-05
0.00229402
0.00472055
0.00639305
0.00754964
0.00866625
0.0087947
0.00946588
0.00923029
0.00960671
0.00945491
0.00967208
0.00971018
0.00984908
0.00998663
0.0100728
0.0101813
0.0102115
0.0102115
0.0101812
0.0100726
0.00998647
0.00984885
0.00970997
0.00967186
0.00945472
0.00960661
0.00923024
0.00946606
0.00879491
0.00866673
0.00755011
0.00639355
0.00472095
0.00229399
9.47858e-05
-0.00269951
-0.00499355
-0.006744
-0.00833835
-0.00961036
-0.0112556
-0.0153688
-0.0212656
-0.0295066
-0.0396633
-0.0455973
-0.0454803
-0.0373137
-0.0186375
0.00377381
0.0242004
0.0410135
0.0527644
0.0641607
0.0780313
0.0872038
0.0854661
0.0737453
0.0553154
0.0321159
0.00620742
-0.0143247
-0.0195482
-0.0129356
-0.00824876
-0.00829575
-0.00425513
-0.0100544
-0.0238695
-0.0310043
-0.0418696
-0.0534023
-0.0516279
-0.0338203
-0.00842663
0.01873
0.0449598
0.0647648
0.0711208
0.0641602
0.0538244
0.0459066
0.0365941
0.0242357
0.00817397
-0.011934
-0.0280351
-0.0348664
-0.0333479
-0.0231716
-0.0102815
-4.37401e-05
0.0075975
0.010479
0.00960992
0.00709104
0.00330282
-0.000726952
-0.00393458
-0.00656937
-0.0084781
-0.00885952
-0.00924597
-0.00802822
-0.00687639
-0.0050218
-0.00281573
-0.000953371
0.00156144
0.00315078
0.00537009
0.00658723
0.00820863
0.00902373
0.00997731
0.0103845
0.0106957
0.0106957
0.0103845
0.00997738
0.00902382
0.0082087
0.00658722
0.00537003
0.0031505
0.00156105
-0.000954094
-0.00281664
-0.00502304
-0.00687793
-0.00802992
-0.00924801
-0.00886151
-0.00848028
-0.00657146
-0.00393653
-0.000728903
0.0033012
0.00708974
0.00960897
0.010479
0.00759838
-4.21881e-05
-0.0102789
-0.0231692
-0.0333462
-0.0348649
-0.0280342
-0.0119328
0.00817614
0.0242378
0.0365962
0.0459078
0.0538239
0.0641606
0.0711238
0.0647682
0.0449613
0.01873
-0.0084279
-0.0338244
-0.0516354
-0.0534089
-0.0418714
-0.031004
-0.0238714
-0.0100561
-0.0123877
-0.0331841
-0.0489292
-0.063872
-0.0752098
-0.0767857
-0.0673681
-0.0473859
-0.017825
0.0152789
0.0417857
0.053832
0.0527633
0.0459066
0.0360457
0.0247671
0.0146979
0.00138544
-0.0163406
-0.0307687
-0.0382025
-0.0355909
-0.0221557
-0.00456458
0.0135158
0.0281706
0.0358433
0.037858
0.0348493
0.0284583
0.0207832
0.0134228
0.00650723
0.00153477
-0.00210491
-0.00465948
-0.00531932
-0.00626364
-0.00546468
-0.00545534
-0.00446195
-0.00396361
-0.00330874
-0.00266187
-0.00236863
-0.00179779
-0.00171539
-0.00134077
-0.0013335
-0.00120459
-0.00120458
-0.00133352
-0.00134074
-0.00171542
-0.00179775
-0.00236868
-0.00266189
-0.00330887
-0.0039638
-0.00446228
-0.00545594
-0.00546544
-0.00626491
-0.0053208
-0.00466149
-0.00210716
0.00153239
0.00650479
0.0134209
0.0207818
0.0284579
0.0348501
0.0378598
0.035846
0.0281741
0.0135191
-0.00456151
-0.0221531
-0.0355895
-0.0382017
-0.0307685
-0.0163409
0.00138581
0.0146981
0.0247671
0.0360468
0.0459078
0.0527644
0.0538349
0.0417897
0.0152808
-0.0178268
-0.04739
-0.067373
-0.0767915
-0.0752156
-0.0638755
-0.0489307
-0.0331858
-0.0123888
-0.0118485
-0.0359478
-0.0584012
-0.0742112
-0.0831027
-0.0898541
-0.092293
-0.0805281
-0.0522006
-0.0166075
0.0147315
0.0343564
0.0410108
0.0365941
0.0247671
0.014201
0.0073265
-0.00438345
-0.022025
-0.0399535
-0.0537487
-0.0554085
-0.0429868
-0.0214066
0.00476401
0.0285652
0.0465203
0.0578338
0.0624565
0.0620406
0.0581857
0.0521668
0.0445037
0.0369993
0.0285545
0.0211269
0.0138706
0.00721574
0.00201473
-0.00329669
-0.00651741
-0.0101913
-0.0119515
-0.014115
-0.0149678
-0.0160324
-0.016392
-0.0168132
-0.016934
-0.0170362
-0.0170363
-0.0169343
-0.0168137
-0.0163928
-0.0160334
-0.014969
-0.0141164
-0.0119529
-0.0101929
-0.00651889
-0.00329823
0.00201348
0.00721464
0.0138699
0.0211266
0.0285545
0.0369999
0.0445046
0.0521681
0.0581875
0.0620428
0.0624593
0.0578372
0.0465239
0.0285687
0.00476681
-0.0214053
-0.0429868
-0.0554099
-0.0537502
-0.0399542
-0.0220251
-0.0043825
0.00732708
0.0142001
0.0247671
0.0365962
0.0410135
0.0343596
0.0147349
-0.0166062
-0.0522038
-0.080535
-0.0922993
-0.0898576
-0.0831057
-0.0742152
-0.0584044
-0.0359489
-0.0118486
-0.0101241
-0.033812
-0.057895
-0.071991
-0.0796997
-0.0921098
-0.104129
-0.101052
-0.0801926
-0.0493703
-0.0169928
0.0094437
0.0241973
0.0242357
0.0146979
0.0073265
0.00208888
-0.00941224
-0.0268018
-0.048002
-0.0681303
-0.0762982
-0.0698199
-0.0510749
-0.0237083
0.00545509
0.0319971
0.0531479
0.067933
0.0763633
0.0798359
0.0789446
0.0750972
0.0696438
0.0623756
0.0556817
0.0479927
0.0416475
0.0352694
0.0298308
0.025263
0.020891
0.0178951
0.0146131
0.0127492
0.0105071
0.00942422
0.00813322
0.00763247
0.00721266
0.00721262
0.00763236
0.00813303
0.00942396
0.0105067
0.0127488
0.0146126
0.0178946
0.0208903
0.0252623
0.0298302
0.0352688
0.0416473
0.0479927
0.0556823
0.0623766
0.0696456
0.0750996
0.0789476
0.0798393
0.0763669
0.0679365
0.0531509
0.0319995
0.0054567
-0.0237077
-0.0510755
-0.0698215
-0.0763009
-0.068133
-0.0480033
-0.026802
-0.00941089
0.00209106
0.00732711
0.0146981
0.0242378
0.0242004
0.00944616
-0.0169916
-0.049371
-0.0801965
-0.10106
-0.104135
-0.092112
-0.0797
-0.0719938
-0.0578988
-0.0338128
-0.0101236
-0.00821181
-0.0284397
-0.0493383
-0.0612213
-0.069462
-0.0842491
-0.100221
-0.106227
-0.0987533
-0.0782405
-0.0483779
-0.0175872
0.00377045
0.00817397
0.00138544
-0.00438345
-0.00941224
-0.0170423
-0.0276751
-0.0468189
-0.0702998
-0.0863473
-0.0910213
-0.0813215
-0.0587926
-0.0307918
-0.00219754
0.0234046
0.04374
0.0588595
0.0700963
0.0772958
0.0824642
0.0853636
0.0864539
0.0866981
0.0848311
0.0830017
0.0792699
0.0759173
0.0714584
0.0673614
0.0631006
0.0590885
0.0556092
0.0523472
0.0499406
0.0478475
0.0466279
0.0459105
0.0459105
0.046628
0.0478477
0.0499409
0.0523475
0.0556098
0.0590893
0.0631016
0.0673626
0.0714599
0.0759192
0.0792719
0.083004
0.0848334
0.0867005
0.0864562
0.0853658
0.0824663
0.0772976
0.0700981
0.058861
0.0437414
0.0234056
-0.00219729
-0.0307923
-0.058794
-0.0813239
-0.0910236
-0.086349
-0.0703009
-0.0468182
-0.027674
-0.0170416
-0.00941086
-0.00438246
0.00138582
0.00817611
0.00377375
-0.0175855
-0.0483792
-0.0782442
-0.0987581
-0.106232
-0.100225
-0.0842505
-0.0694611
-0.0612223
-0.049341
-0.0284407
-0.0082115
-0.00619146
-0.021241
-0.0369906
-0.0473662
-0.0557625
-0.0683243
-0.0842205
-0.0988322
-0.104753
-0.0950366
-0.0712334
-0.0416965
-0.01864
-0.011934
-0.0163406
-0.022025
-0.0268018
-0.0276751
-0.0303184
-0.046331
-0.0696453
-0.0903498
-0.103106
-0.100287
-0.0842428
-0.0613376
-0.0350988
-0.0103033
0.0107389
0.0285265
0.0430391
0.0542605
0.0641225
0.0711945
0.0771191
0.08145
0.0840294
0.0862785
0.0865551
0.087231
0.0863086
0.0859464
0.084635
0.0837563
0.0825266
0.081574
0.0806645
0.0799631
0.0794859
0.0792306
0.0792307
0.079486
0.0799634
0.0806649
0.0815744
0.0825272
0.0837569
0.0846358
0.0859474
0.0863098
0.0872324
0.0865566
0.0862803
0.0840313
0.081452
0.077121
0.0711962
0.0641239
0.0542613
0.0430395
0.0285264
0.0107383
-0.010304
-0.0350997
-0.0613388
-0.0842441
-0.100289
-0.103108
-0.0903508
-0.0696454
-0.0463289
-0.0303151
-0.027674
-0.026802
-0.022025
-0.0163409
-0.0119329
-0.0186376
-0.0416955
-0.0712357
-0.0950418
-0.104759
-0.0988357
-0.0842218
-0.0683244
-0.0557617
-0.0473661
-0.0369918
-0.0212419
-0.00619154
-0.00393081
-0.0135329
-0.0247566
-0.0342453
-0.041308
-0.0491854
-0.0629756
-0.0821078
-0.0962168
-0.0967611
-0.0834442
-0.059832
-0.0373148
-0.0280351
-0.0307687
-0.0399535
-0.048002
-0.0468189
-0.046331
-0.0567778
-0.0728048
-0.0921134
-0.107448
-0.108965
-0.0990367
-0.0800711
-0.0561992
-0.0335861
-0.0142035
0.00156734
0.0132073
0.0222224
0.0302577
0.0363371
0.0433135
0.0491157
0.0552762
0.0612934
0.0663029
0.071868
0.0756043
0.080027
0.0826052
0.0856504
0.0872913
0.0891185
0.0900541
0.090975
0.0913915
0.091666
0.0916661
0.0913918
0.0909754
0.0900548
0.0891192
0.0872921
0.0856513
0.0826061
0.0800279
0.075605
0.0718686
0.0663032
0.0612936
0.0552761
0.0491153
0.043313
0.0363364
0.0302572
0.0222218
0.0132067
0.00156696
-0.014204
-0.0335865
-0.0561996
-0.0800719
-0.0990373
-0.108966
-0.107449
-0.092113
-0.0728042
-0.056777
-0.0463289
-0.0468182
-0.0480033
-0.0399542
-0.0307686
-0.0280343
-0.0373138
-0.0598327
-0.0834472
-0.0967656
-0.0962214
-0.0821099
-0.0629747
-0.0491841
-0.0413076
-0.0342453
-0.0247568
-0.0135332
-0.00393092
-0.00158318
-0.00648249
-0.0147636
-0.0236647
-0.0285423
-0.031444
-0.0413504
-0.0598148
-0.0777782
-0.0877989
-0.0846136
-0.0665525
-0.0454814
-0.0348664
-0.0382025
-0.0537487
-0.0681303
-0.0702998
-0.0696453
-0.0728048
-0.0821325
-0.101205
-0.117648
-0.121935
-0.114731
-0.0957824
-0.0716718
-0.0485843
-0.0288684
-0.0137676
-0.00361114
0.004138
0.00998248
0.0143229
0.0196532
0.0232174
0.0283771
0.0321881
0.0365023
0.0405557
0.0437706
0.0476312
0.0499158
0.0531532
0.0547456
0.0571133
0.0581488
0.0595674
0.0600849
0.0605548
0.0605548
0.0600849
0.0595674
0.0581489
0.0571135
0.0547457
0.0531534
0.049916
0.0476315
0.0437707
0.0405559
0.0365023
0.0321879
0.0283769
0.0232168
0.0196527
0.0143219
0.00998159
0.00413718
-0.00361187
-0.0137677
-0.0288683
-0.0485839
-0.0716712
-0.0957823
-0.114731
-0.121935
-0.117649
-0.101204
-0.0821306
-0.0728042
-0.0696454
-0.0703009
-0.068133
-0.0537503
-0.0382018
-0.034865
-0.0454804
-0.0665539
-0.0846175
-0.0878028
-0.0777807
-0.0598151
-0.0413484
-0.031442
-0.0285423
-0.0236653
-0.0147633
-0.00648181
-0.00158286
0.000329129
-0.00112575
-0.00750923
-0.0157158
-0.0186048
-0.0175561
-0.0228018
-0.0375965
-0.0560982
-0.0713444
-0.0745649
-0.0628129
-0.0455979
-0.0333479
-0.0355909
-0.0554085
-0.0762982
-0.0863473
-0.0903498
-0.0921134
-0.101205
-0.120362
-0.135925
-0.142667
-0.137151
-0.117629
-0.0918589
-0.065011
-0.0408321
-0.0221155
-0.00954246
-0.000658194
0.0037502
0.00639088
0.00814842
0.00811502
0.00982142
0.00957223
0.0115912
0.0122956
0.0143214
0.0160372
0.0178151
0.0200018
0.0214132
0.0234342
0.0244173
0.0258006
0.0263074
0.0267947
0.0267947
0.0263072
0.0258005
0.0244169
0.0234339
0.0214127
0.0200013
0.0178144
0.0160365
0.0143206
0.0122948
0.0115904
0.00957138
0.00982095
0.00811449
0.00814833
0.00639095
0.00375046
-0.000657511
-0.00954183
-0.0221146
-0.0408311
-0.0650101
-0.0918581
-0.117628
-0.137151
-0.142667
-0.135926
-0.120363
-0.101204
-0.092113
-0.0903508
-0.086349
-0.076301
-0.0554099
-0.0355896
-0.0333463
-0.0455973
-0.0628142
-0.0745683
-0.0713476
-0.0560993
-0.0375956
-0.0227993
-0.017554
-0.0186051
-0.0157171
-0.00750903
-0.00112422
0.000329998
0.00117756
0.00182571
-0.00239382
-0.0094075
-0.0116555
-0.00875569
-0.00946301
-0.0186708
-0.034521
-0.0512728
-0.0595209
-0.0546218
-0.0396631
-0.0231716
-0.0221557
-0.0429868
-0.0698199
-0.0910213
-0.103106
-0.107448
-0.117648
-0.135925
-0.154269
-0.168072
-0.167025
-0.15013
-0.124033
-0.0932386
-0.0640879
-0.04053
-0.0231425
-0.0106037
-0.00377337
0.00159828
0.00403701
0.00561018
0.00731966
0.00712508
0.00888952
0.00822617
0.00974859
0.00931602
0.0103473
0.0103165
0.0108812
0.0111083
0.0113628
0.0116173
0.0117064
0.0118122
0.0118123
0.0117063
0.0116173
0.0113627
0.0111083
0.0108811
0.0103164
0.0103472
0.00931587
0.00974855
0.00822595
0.00888952
0.00712485
0.0073197
0.00561018
0.00403714
0.00159877
-0.0037729
-0.0106027
-0.0231414
-0.0405288
-0.0640867
-0.0932379
-0.124033
-0.150131
-0.167026
-0.168074
-0.15427
-0.135926
-0.117649
-0.107449
-0.103108
-0.0910236
-0.0698215
-0.0429869
-0.0221532
-0.0231693
-0.0396633
-0.0546239
-0.0595236
-0.0512745
-0.0345208
-0.0186693
-0.00946086
-0.00875412
-0.011656
-0.00940897
-0.0023937
0.00182755
0.00117867
0.000669617
0.0023169
0.00143976
-0.00391285
-0.00746281
-0.00468479
-0.000912671
-0.00388125
-0.0163587
-0.0330898
-0.043973
-0.0431346
-0.0295064
-0.0102815
-0.00456458
-0.0214066
-0.0510749
-0.0813215
-0.100287
-0.108965
-0.121935
-0.142667
-0.168072
-0.189796
-0.195888
-0.186156
-0.162981
-0.132007
-0.100572
-0.072659
-0.0497489
-0.0322187
-0.0201397
-0.0101287
-0.00467258
0.000566863
0.00332528
0.00521591
0.00712752
0.0069478
0.00845167
0.00742672
0.00850204
0.00745122
0.00809975
0.00736081
0.00768323
0.00728762
0.00740941
0.00728959
0.00728962
0.00740936
0.00728763
0.0076832
0.00736082
0.0080998
0.00745126
0.00850226
0.00742688
0.00845214
0.00694818
0.00712821
0.00521661
0.00332608
0.000567856
-0.00467181
-0.0101277
-0.020139
-0.0322179
-0.0497482
-0.0726586
-0.100571
-0.132007
-0.162982
-0.186157
-0.19589
-0.189798
-0.168074
-0.142667
-0.121935
-0.108966
-0.100289
-0.0813239
-0.0510755
-0.0214053
-0.00456159
-0.010279
-0.0295066
-0.0431369
-0.0439755
-0.0330908
-0.0163575
-0.00387913
-0.000911059
-0.00468431
-0.00746357
-0.0039138
0.00144011
0.00231832
0.000670423
-0.000951019
0.000902667
0.00440817
0.00103932
-0.00510148
-0.00370102
0.00372919
0.00592264
-0.00327678
-0.0178728
-0.0287442
-0.031525
-0.0212646
-4.37401e-05
0.0135158
0.00476401
-0.0237083
-0.0587926
-0.0842428
-0.0990367
-0.114731
-0.137151
-0.167025
-0.195888
-0.212857
-0.213422
-0.197218
-0.170826
-0.140302
-0.111353
-0.0863059
-0.0665648
-0.0514347
-0.0391918
-0.0309596
-0.0226865
-0.017799
-0.012142
-0.00848981
-0.00506422
-0.00190854
-0.000203975
0.00246107
0.00311105
0.00512906
0.00528182
0.00658922
0.00658089
0.00721099
0.0071946
0.00719462
0.00721105
0.00658097
0.00658937
0.00528194
0.00512931
0.00311121
0.00246139
-0.000203746
-0.00190819
-0.00506387
-0.00848947
-0.0121415
-0.0177986
-0.0226859
-0.0309592
-0.0391913
-0.0514342
-0.0665645
-0.0863057
-0.111353
-0.140303
-0.170827
-0.19722
-0.213424
-0.21286
-0.19589
-0.167026
-0.137151
-0.114731
-0.0990373
-0.0842441
-0.058794
-0.0237077
0.00476674
0.013519
-4.22e-05
-0.0212656
-0.031527
-0.0287459
-0.0178734
-0.00327543
0.005925
0.00373041
-0.00370167
-0.00510261
0.00103932
0.00440905
0.00090312
-0.000951018
-0.00303349
-0.00150191
0.00649835
0.00537476
-0.00348313
-0.00435494
0.00515687
0.0114326
0.00586786
-0.00581092
-0.0165141
-0.0227237
-0.0153668
0.0075975
0.0281706
0.0285652
0.00545509
-0.0307918
-0.0613376
-0.0800711
-0.0957824
-0.117629
-0.15013
-0.186156
-0.213422
-0.224337
-0.21788
-0.198439
-0.172282
-0.146247
-0.122396
-0.10336
-0.0878549
-0.075433
-0.0657057
-0.0564822
-0.0497827
-0.0422479
-0.037158
-0.0312316
-0.0271136
-0.0228838
-0.0195215
-0.0167944
-0.0141936
-0.0125995
-0.0108283
-0.0100197
-0.00912567
-0.00888073
-0.00888073
-0.00912556
-0.0100196
-0.010828
-0.0125993
-0.0141933
-0.0167941
-0.0195212
-0.0228835
-0.0271133
-0.0312313
-0.0371579
-0.0422477
-0.0497827
-0.0564822
-0.0657059
-0.0754333
-0.0878553
-0.103361
-0.122396
-0.146248
-0.172283
-0.198441
-0.217881
-0.224339
-0.213424
-0.186157
-0.150131
-0.117628
-0.0957824
-0.0800719
-0.0613388
-0.0307923
0.00545667
0.0285686
0.028174
0.00759839
-0.0153687
-0.0227259
-0.0165151
-0.00581087
0.00586933
0.0114349
0.00515761
-0.00435655
-0.0034845
0.00537585
0.00649982
-0.00150264
-0.00303449
-0.00477924
-0.00388206
0.00747939
0.00871432
-0.00185275
-0.00535767
0.00456383
0.0138152
0.0115353
0.00256125
-0.0072293
-0.0153388
-0.0112533
0.010479
0.0358433
0.0465203
0.0319971
-0.00219754
-0.0350988
-0.0561992
-0.0716718
-0.0918589
-0.124033
-0.162981
-0.197218
-0.21788
-0.220908
-0.209008
-0.188865
-0.166615
-0.145579
-0.128998
-0.115408
-0.10515
-0.0970043
-0.0896202
-0.0838474
-0.0775348
-0.0727336
-0.0672083
-0.0630435
-0.0584762
-0.0549661
-0.0514834
-0.0487269
-0.0463263
-0.044425
-0.0430335
-0.0420634
-0.0416091
-0.0416091
-0.0420634
-0.0430336
-0.044425
-0.0463263
-0.0487269
-0.0514834
-0.0549661
-0.0584762
-0.0630436
-0.0672083
-0.0727338
-0.077535
-0.0838476
-0.0896206
-0.0970047
-0.10515
-0.115409
-0.128998
-0.14558
-0.166616
-0.188866
-0.20901
-0.220909
-0.217881
-0.19722
-0.162982
-0.124033
-0.0918581
-0.0716712
-0.0561996
-0.0350997
-0.00219727
0.0319995
0.0465238
0.035846
0.010479
-0.0112555
-0.0153408
-0.00722998
0.00256149
0.0115367
0.0138173
0.00456411
-0.00535994
-0.00185414
0.00871631
0.00748128
-0.0038838
-0.00478109
-0.00553624
-0.0054323
0.00712079
0.0106827
0.000308965
-0.00570219
0.00273737
0.0135827
0.0145128
0.00870487
0.000186188
-0.00987572
-0.00960762
0.00960992
0.037858
0.0578338
0.0531479
0.0234046
-0.0103033
-0.0335861
-0.0485843
-0.065011
-0.0932386
-0.132007
-0.170826
-0.198439
-0.209008
-0.203881
-0.18862
-0.169905
-0.151959
-0.138117
-0.127415
-0.120383
-0.11528
-0.111064
-0.108132
-0.104373
-0.10179
-0.0981041
-0.0953905
-0.0920376
-0.0893404
-0.0865734
-0.084214
-0.0821744
-0.0804427
-0.0791988
-0.0782873
-0.0778697
-0.0778697
-0.0782873
-0.0791988
-0.0804428
-0.0821745
-0.0842142
-0.0865737
-0.0893407