/*--------------------------------*- C++ -*----------------------------------*\
  =========                 |
  \\      /  F ield         | OpenFOAM: The Open Source CFD Toolbox
   \\    /   O peration     | Website:  https://openfoam.org
    \\  /    A nd           | Version:  10
     \\/     M anipulation  |
\*---------------------------------------------------------------------------*/
FoamFile
{
    format      ascii;
    class       volScalarField;
    location    "65";
    object      h;
}
// * * * * * * * * * * * * * * * * * * * * * * * * * * * * * * * * * * * * * //

dimensions      [0 1 0 0 0 0 0];

internalField   nonuniform List<scalar> 
10000
(
2.78534e-05
0.000105388
0.000337462
0.000773829
0.000989244
0.000441689
-0.000847955
-0.002387
-0.00374944
-0.00467707
-0.00488047
-0.00421631
-0.00289209
-0.0012092
0.000821573
0.0033484
0.00623299
0.00896343
0.0110374
0.0122356
0.0124453
0.0115222
0.00944085
0.00649719
0.00317856
-0.000126253
-0.00320941
-0.00583375
-0.00764846
-0.00839126
-0.0080583
-0.00687565
-0.00523158
-0.00359849
-0.00227357
-0.00128582
-0.000496773
0.000247025
0.000886022
0.00117227
0.00103706
0.000650256
0.000243347
-4.13069e-05
-0.000234783
-0.000365101
-0.000288231
0.000111193
0.000715169
0.00118514
0.00118511
0.000715097
0.000111133
-0.000288238
-0.000365053
-0.000234711
-4.12475e-05
0.000243378
0.00065027
0.00103709
0.00117233
0.000886126
0.000247173
-0.000496609
-0.0012857
-0.00227356
-0.00359864
-0.00523189
-0.0068761
-0.00805883
-0.00839182
-0.00764899
-0.0058342
-0.00320971
-0.000126357
0.00317871
0.00649766
0.00944171
0.0115234
0.0124467
0.0122371
0.0110385
0.00896393
0.00623278
0.00334768
0.000820695
-0.00121001
-0.00289285
-0.00421722
-0.00488166
-0.00467834
-0.00375038
-0.00238717
-0.000847208
0.000443032
0.000990524
0.000774476
0.0003374
0.000105014
2.76579e-05
0.000105388
0.000274893
0.000665188
0.00149013
0.00174382
7.71718e-05
-0.00339316
-0.00738224
-0.0108905
-0.0133306
-0.0138558
-0.0119075
-0.00794365
-0.00281275
0.00334791
0.0108198
0.0191267
0.0268343
0.0326229
0.0359795
0.0366083
0.0340245
0.0280506
0.0194737
0.0096956
-0.000128006
-0.00935581
-0.0172635
-0.0227969
-0.0251556
-0.0242983
-0.020879
-0.0160563
-0.0112452
-0.00734196
-0.00443343
-0.00209318
0.000144904
0.00210353
0.00303535
0.0027022
0.00157396
0.000327987
-0.000594226
-0.00123948
-0.00164563
-0.00137152
-9.28547e-05
0.00179993
0.00325752
0.00325743
0.00179974
-9.30078e-05
-0.00137154
-0.00164552
-0.00123932
-0.000594102
0.000328068
0.00157405
0.00270234
0.00303555
0.00210379
0.000145201
-0.00209287
-0.0044332
-0.00734199
-0.0112456
-0.0160572
-0.0208803
-0.0242999
-0.0251573
-0.0227985
-0.017265
-0.00935681
-0.000128369
0.00969608
0.0194752
0.0280533
0.0340282
0.0366126
0.0359836
0.0326261
0.0268359
0.0191265
0.0108182
0.00334559
-0.00281521
-0.00794623
-0.0119105
-0.0138592
-0.013334
-0.0108928
-0.00738264
-0.00339132
8.04618e-05
0.00174701
0.00149188
0.000665284
0.000274223
0.000105014
0.000337462
0.000665188
0.00071119
0.000965895
0.000440059
-0.00239032
-0.00719078
-0.0123153
-0.0167929
-0.0201064
-0.020911
-0.0179672
-0.0116088
-0.00306871
0.0071955
0.0192585
0.0321726
0.0437921
0.0523631
0.057373
0.0584461
0.05468
0.0455556
0.0321208
0.0165187
0.000610486
-0.0145034
-0.0275839
-0.0368772
-0.0410307
-0.0399135
-0.0345568
-0.0268567
-0.0191232
-0.0128274
-0.0081101
-0.00425775
-0.000517279
0.00280334
0.00447386
0.00405346
0.00225222
0.000158257
-0.00148309
-0.00266808
-0.00337097
-0.00284843
-0.000604679
0.00265227
0.00513373
0.00513362
0.00265202
-0.000604877
-0.00284845
-0.00337084
-0.00266792
-0.00148298
0.000158374
0.00225244
0.00405383
0.0044743
0.00280372
-0.000516996
-0.00425754
-0.00811
-0.0128276
-0.0191238
-0.026858
-0.0345587
-0.0399159
-0.0410334
-0.03688
-0.0275864
-0.0145051
0.000609912
0.0165197
0.0321236
0.0455601
0.054686
0.0584525
0.0573791
0.0523679
0.0437949
0.0321732
0.019257
0.00719237
-0.00307287
-0.0116137
-0.0179727
-0.0209164
-0.020111
-0.0167957
-0.0123157
-0.00718874
-0.00238666
0.000443806
0.000968399
0.000712168
0.000665284
0.0003374
0.000773829
0.00149013
0.000965895
-5.20058e-06
-0.0019098
-0.00588419
-0.0112745
-0.0164349
-0.0208769
-0.024459
-0.0254777
-0.0219192
-0.0137135
-0.00226284
0.0116025
0.0275498
0.0440979
0.058568
0.0690406
0.0751877
0.0766642
0.0721929
0.0608422
0.0437033
0.0233965
0.00232032
-0.0179989
-0.0358036
-0.0486669
-0.0546926
-0.0536132
-0.0467627
-0.0366792
-0.0264252
-0.0179665
-0.011512
-0.00613654
-0.000907303
0.00370994
0.00609062
0.00563771
0.00327801
0.000455759
-0.00183855
-0.00354544
-0.0045409
-0.00379335
-0.000652186
0.00387219
0.00729866
0.00729849
0.00387181
-0.00065248
-0.00379336
-0.00454067
-0.00354518
-0.0018384
0.000455891
0.00327832
0.00563828
0.00609132
0.00371054
-0.000906948
-0.00613642
-0.011512
-0.0179669
-0.0264262
-0.0366809
-0.0467651
-0.0536163
-0.0546962
-0.0486706
-0.0358068
-0.018001
0.00231982
0.0233982
0.0437072
0.0608483
0.0722002
0.0766718
0.0751947
0.0690463
0.058572
0.0440997
0.0275489
0.011599
-0.00226853
-0.0137207
-0.0219269
-0.0254845
-0.0244639
-0.0208794
-0.0164352
-0.0112731
-0.00588146
-0.00190654
-2.13529e-06
0.000968397
0.00149187
0.000774477
0.000989244
0.00174382
0.000440059
-0.0019098
-0.00521423
-0.0100527
-0.015462
-0.0199066
-0.0234096
-0.026272
-0.0267397
-0.0223677
-0.0127597
0.000687488
0.0169747
0.0355134
0.0544514
0.0707309
0.0823187
0.0890397
0.09065
0.0856882
0.0729318
0.0533795
0.0298073
0.00485291
-0.0196795
-0.0415776
-0.0577901
-0.0658647
-0.0652978
-0.0575912
-0.0457741
-0.0334794
-0.0230885
-0.0149357
-0.00801151
-0.00133881
0.00445303
0.00748929
0.00709483
0.0043745
0.00103263
-0.00178892
-0.00397509
-0.00525501
-0.00431498
-0.000364911
0.005303
0.00957517
0.00957488
0.00530236
-0.000365416
-0.00431499
-0.00525459
-0.00397456
-0.00178859
0.00103278
0.00437475
0.0070954
0.00749013
0.00445386
-0.00133827
-0.00801133
-0.0149359
-0.0230892
-0.0334808
-0.0457763
-0.0575942
-0.0653014
-0.0658688
-0.0577942
-0.041581
-0.0196816
0.00485282
0.0298096
0.0533843
0.0729386
0.0856962
0.0906581
0.0890472
0.0823252
0.0707359
0.0544541
0.0355131
0.0169711
0.000680963
-0.0127682
-0.0223766
-0.0267472
-0.0262769
-0.0234119
-0.0199074
-0.0154617
-0.0100514
-0.00521194
-0.00190654
0.000443802
0.00174701
0.000990525
0.000441689
7.71718e-05
-0.00239032
-0.00588419
-0.0100527
-0.0151539
-0.0200597
-0.02325
-0.0249256
-0.0256877
-0.0241527
-0.0181247
-0.00726358
0.00712425
0.0242108
0.0435532
0.0633022
0.0802459
0.0922081
0.0989947
0.100446
0.0951161
0.0816853
0.060992
0.0356655
0.00825081
-0.0193916
-0.0447317
-0.0641734
-0.0746609
-0.075278
-0.0674952
-0.0546698
-0.0408597
-0.0288288
-0.019113
-0.0107214
-0.00271523
0.00414726
0.00787504
0.00773308
0.00489122
0.00118477
-0.00215122
-0.00487003
-0.00644182
-0.00526476
-0.000466021
0.00634228
0.0114313
0.0114309
0.00634138
-0.000466744
-0.0052648
-0.00644118
-0.0048692
-0.00215066
0.00118498
0.0048914
0.00773355
0.00787586
0.00414814
-0.00271461
-0.0107213
-0.0191134
-0.0288299
-0.0408616
-0.0546727
-0.0674988
-0.0752821
-0.0746653
-0.0641774
-0.0447348
-0.0193931
0.00825128
0.0356682
0.0609967
0.081692
0.095124
0.100454
0.0990026
0.0922152
0.0802515
0.0633054
0.0435532
0.0242074
0.00711801
-0.00727162
-0.0181331
-0.0241599
-0.0256928
-0.0249287
-0.0232519
-0.0200609
-0.0151541
-0.0100514
-0.00588147
-0.00238667
8.04618e-05
0.000443033
-0.000847955
-0.00339316
-0.00719078
-0.0112745
-0.015462
-0.0200597
-0.0239974
-0.0256748
-0.0250688
-0.0228333
-0.0182575
-0.00998072
0.00192626
0.016271
0.0326192
0.0509912
0.069934
0.0864089
0.098163
0.10482
0.106187
0.100888
0.0875977
0.0669415
0.0412124
0.0126591
-0.0169546
-0.0449335
-0.0672759
-0.0803394
-0.0826618
-0.0755078
-0.0624064
-0.047694
-0.0344562
-0.0234621
-0.0138028
-0.00463346
0.0031896
0.00765474
0.00794856
0.00517552
0.00118764
-0.00270138
-0.00600879
-0.00784542
-0.00635207
-0.000663905
0.00724974
0.0130961
0.0130957
0.00724872
-0.000664727
-0.0063521
-0.00784467
-0.00600779
-0.00270068
0.00118792
0.00517572
0.00794905
0.00765557
0.00319045
-0.00463298
-0.0138029
-0.0234628
-0.0344577
-0.0476964
-0.0624098
-0.0755119
-0.0826662
-0.0803436
-0.0672794
-0.0449358
-0.0169552
0.0126602
0.0412151
0.0669459
0.0876037
0.100895
0.106195
0.104829
0.0981704
0.0864146
0.069937
0.0509911
0.0326163
0.0162662
0.00192022
-0.00998721
-0.0182637
-0.0228387
-0.0250733
-0.0256784
-0.024
-0.0200609
-0.0154617
-0.0112731
-0.00718874
-0.00339132
-0.000847207
-0.002387
-0.00738224
-0.0123153
-0.0164349
-0.0199066
-0.02325
-0.0256748
-0.0256263
-0.0227213
-0.0174767
-0.00988454
0.000426428
0.0129169
0.0265084
0.0410953
0.0571539
0.0738607
0.0887398
0.0997068
0.106181
0.107797
0.103157
0.0908619
0.0712254
0.0461195
0.017481
-0.0130152
-0.0426004
-0.0670647
-0.0823475
-0.0864814
-0.0804528
-0.0677971
-0.0529003
-0.0389994
-0.0270634
-0.0163394
-0.0061742
0.0024701
0.00764104
0.00846633
0.00591139
0.00176566
-0.00259593
-0.00640687
-0.00840106
-0.00654534
-6.98902e-05
0.00872902
0.0151465
0.015146
0.00872795
-7.07427e-05
-0.00654535
-0.00840023
-0.00640577
-0.00259515
0.00176599
0.00591164
0.00846692
0.00764198
0.00247099
-0.00617387
-0.0163398
-0.0270647
-0.0390015
-0.0529031
-0.0678007
-0.0804569
-0.0864856
-0.0823512
-0.0670673
-0.0426016
-0.0130149
0.0174827
0.0461222
0.0712294
0.0908671
0.103164
0.107804
0.106188
0.0997134
0.0887449
0.0738634
0.057154
0.0410936
0.0265057
0.0129136
0.000422344
-0.00988948
-0.0174823
-0.0227271
-0.0256314
-0.0256784
-0.0232519
-0.0199074
-0.0164352
-0.0123157
-0.00738264
-0.00238717
-0.00374944
-0.0108905
-0.0167929
-0.0208769
-0.0234096
-0.0249256
-0.0250688
-0.0227213
-0.0173911
-0.00944931
0.000575714
0.0123057
0.0249494
0.0375308
0.0499748
0.0629238
0.0762331
0.088353
0.0977198
0.103683
0.105667
0.102149
0.0915115
0.0736018
0.049799
0.0217939
-0.00871719
-0.038913
-0.0645759
-0.0814861
-0.0873343
-0.0828248
-0.0713149
-0.0569621
-0.0429386
-0.0303746
-0.0187785
-0.0077972
0.00150822
0.00733795
0.00880192
0.00666029
0.00254796
-0.00212887
-0.00629172
-0.00830099
-0.00603657
0.00109772
0.0105262
0.0173049
0.0173044
0.0105251
0.0010968
-0.00603656
-0.00830003
-0.00629043
-0.00212793
0.00254834
0.00666048
0.00880245
0.0073389
0.00150914
-0.00779698
-0.0187793
-0.0303765
-0.0429414
-0.0569655
-0.0713187
-0.0828287
-0.0873378
-0.0814888
-0.0645775
-0.0389132
-0.00871616
0.0217959
0.0498019
0.0736054
0.0915159
0.102155
0.105673
0.103688
0.0977248
0.0883568
0.0762355
0.0629249
0.049975
0.0375306
0.0249486
0.0123038
0.000572225
-0.00945442
-0.0173971
-0.0227271
-0.0250733
-0.0249287
-0.0234119
-0.0208794
-0.0167957
-0.0108928
-0.00375038
-0.00467707
-0.0133306
-0.0201064
-0.024459
-0.026272
-0.0256877
-0.0228333
-0.0174767
-0.00944931
0.000888651
0.0126658
0.0251189
0.0375167
0.0490142
0.0592802
0.0688038
0.0780538
0.0866068
0.0936605
0.0986449
0.100848
0.098636
0.0901054
0.0744933
0.052573
0.025792
-0.00406089
-0.0341176
-0.0602831
-0.078363
-0.0858336
-0.083115
-0.0732503
-0.0599947
-0.0463286
-0.0335274
-0.0214138
-0.00993868
-0.000182884
0.00627963
0.0085172
0.00696114
0.00298661
-0.00195667
-0.0063946
-0.00828769
-0.00551531
0.00224041
0.0121334
0.0191191
0.0191186
0.0121322
0.00223947
-0.00551528
-0.00828663
-0.00639312
-0.00195554
0.00298707
0.00696125
0.0085175
0.00628033
-0.000182184
-0.0099387
-0.021415
-0.0335299
-0.046332
-0.0599986
-0.0732542
-0.0831184
-0.0858363
-0.0783647
-0.0602836
-0.034117
-0.00405929
0.0257944
0.0525759
0.0744967
0.0901091
0.0986398
0.100851
0.098648
0.0936632
0.0866093
0.0780563
0.0688063
0.0592826
0.0490164
0.0375181
0.0251188
0.0126639
0.000884876
-0.00945442
-0.0174823
-0.0228387
-0.0256928
-0.0262769
-0.0244639
-0.020111
-0.013334
-0.00467834
-0.00488047
-0.0138558
-0.020911
-0.0254777
-0.0267397
-0.0241527
-0.0182575
-0.00988454
0.000575714
0.0126658
0.0252851
0.0375365
0.0490009
0.0590867
0.0671492
0.073379
0.0787304
0.0838258
0.08856
0.0924413
0.0947138
0.0937908
0.087576
0.0746713
0.0551574
0.0301752
0.00158097
-0.0277468
-0.0538927
-0.072753
-0.0816378
-0.0806896
-0.0726049
-0.0607223
-0.0478093
-0.0352602
-0.0231682
-0.0116784
-0.0017697
0.00523348
0.00827698
0.00733878
0.00348061
-0.00173312
-0.00634053
-0.00792624
-0.00451626
0.00379798
0.0139285
0.0209167
0.0209163
0.0139275
0.00379718
-0.00451619
-0.0079252
-0.00633904
-0.00173189
0.0034812
0.00733891
0.00827712
0.00523383
-0.00176946
-0.0116789
-0.02317
-0.0352632
-0.0478131
-0.0607262
-0.0726085
-0.0806924
-0.0816396
-0.0727536
-0.0538922
-0.0277453
0.00158325
0.030178
0.0551604
0.0746743
0.0875788
0.093793
0.0947153
0.0924422
0.0885608
0.0838272
0.0787329
0.0733826
0.0671535
0.0590907
0.0490039
0.037538
0.0252848
0.0126639
0.000572224
-0.00988948
-0.0182637
-0.0241599
-0.0267472
-0.0254845
-0.0209164
-0.0138592
-0.00488166
-0.00421631
-0.0119075
-0.0179672
-0.0219192
-0.0223677
-0.0181247
-0.00998072
0.000426428
0.0123057
0.0251189
0.0375365
0.0485656
0.0582043
0.0662956
0.0720583
0.075429
0.0776813
0.0801658
0.0831571
0.0860994
0.0882661
0.0883323
0.0842194
0.0740116
0.0571173
0.0343394
0.00755154
-0.0204189
-0.0458894
-0.0649066
-0.0746929
-0.0751703
-0.0687098
-0.0582625
-0.0463666
-0.0344796
-0.0228966
-0.0118491
-0.00212136
0.00521349
0.00893561
0.00853774
0.00479167
-0.000552858
-0.00503869
-0.00601529
-0.00187066
0.00678532
0.0167382
0.0233988
0.0233985
0.0167374
0.00678475
-0.00187054
-0.00601435
-0.0050373
-0.000551617
0.00479239
0.00853798
0.0089357
0.00521355
-0.0021216
-0.0118502
-0.0228989
-0.034483
-0.0463705
-0.0582662
-0.0687128
-0.0751723
-0.0746937
-0.0649062
-0.0458879
-0.0204164
0.00755457
0.0343425
0.0571201
0.0740138
0.0842207
0.0883327
0.0882657
0.0860985
0.0831565
0.0801663
0.0776835
0.075433
0.0720634
0.0663008
0.0582086
0.0485685
0.037538
0.0251188
0.0123038
0.000422342
-0.00998721
-0.0181331
-0.0223766
-0.0219269
-0.0179727
-0.0119105
-0.00421722
-0.00289209
-0.00794365
-0.0116088
-0.0137135
-0.0127597
-0.00726358
0.00192626
0.0129169
0.0249494
0.0375167
0.0490009
0.0582043
0.0654919
0.0712575
0.0748104
0.0759373
0.0760468
0.0768438
0.0786528
0.0807353
0.08246
0.0829298
0.0802732
0.0722317
0.0576723
0.0371341
0.0125144
-0.0134721
-0.0374821
-0.0558667
-0.0659263
-0.0674413
-0.0624296
-0.0534182
-0.0426714
-0.0316744
-0.0209095
-0.0106431
-0.00139898
0.006014
0.0102187
0.010256
0.00666127
0.00141265
-0.00258737
-0.00263552
0.0023069
0.0110392
0.0203656
0.0263548
0.0263546
0.0203651
0.0110388
0.00230706
-0.00263467
-0.00258608
0.00141389
0.00666205
0.0102562
0.0102186
0.00601373
-0.00139967
-0.0106447
-0.0209122
-0.031678
-0.0426754
-0.0534217
-0.062432
-0.0674424
-0.0659261
-0.0558652
-0.0374796
-0.0134688
0.0125179
0.0371373
0.0576746
0.0722328
0.0802731
0.0829286
0.082458
0.0807332
0.0786514
0.0768436
0.0760484
0.0759409
0.0748156
0.0712632
0.0654971
0.0582086
0.0490039
0.0375181
0.0249486
0.0129136
0.00192022
-0.00727163
-0.0127682
-0.0137207
-0.0116137
-0.00794623
-0.00289285
-0.0012092
-0.00281275
-0.00306871
-0.00226284
0.000687488
0.00712425
0.016271
0.0265084
0.0375308
0.0490142
0.0590867
0.0662956
0.0712575
0.0748864
0.0766858
0.0763351
0.0752032
0.075066
0.0761197
0.0774281
0.0784918
0.0788757
0.0769871
0.0703768
0.0575586
0.0389651
0.0165863
-0.00700914
-0.0289383
-0.0460448
-0.0558901
-0.0581656
-0.0544697
-0.0468603
-0.0373184
-0.027361
-0.0176542
-0.00844465
6.21792e-05
0.00730935
0.0117458
0.0119974
0.00844506
0.00337027
0.000100458
0.0012364
0.00705457
0.0156895
0.0240671
0.0291317
0.0291316
0.0240669
0.0156894
0.00705483
0.00123715
0.000101598
0.00337144
0.00844582
0.0119976
0.0117454
0.00730858
6.09846e-05
-0.00844657
-0.0176572
-0.0273647
-0.0373223
-0.0468634
-0.0544715
-0.0581658
-0.0558889
-0.0460423
-0.028935
-0.00700551
0.0165897
0.0389678
0.0575603
0.070377
0.0769859
0.0788733
0.0784888
0.0774253
0.0761178
0.0750655
0.0752044
0.0763381
0.0766903
0.0748918
0.0712632
0.0663008
0.0590907
0.0490164
0.0375306
0.0265057
0.0162662
0.00711801
0.000680959
-0.00226853
-0.00307287
-0.00281521
-0.00121
0.000821573
0.00334791
0.0071955
0.0116025
0.0169747
0.0242108
0.0326192
0.0410953
0.0499748
0.0592802
0.0671492
0.0720583
0.0748104
0.0766858
0.0773392
0.0763214
0.0748278
0.0745332
0.075439
0.0764178
0.0770503
0.0772703
0.0757565
0.0700035
0.0583585
0.0412978
0.0209779
-0.00016228
-0.0197296
-0.0351444
-0.0443359
-0.0469616
-0.0442251
-0.0377918
-0.0294309
-0.0206749
-0.0122804
-0.00436571
0.00320346
0.0100232
0.0142977
0.0143061
0.0104462
0.00545393
0.00308037
0.00564532
0.012444
0.0208499
0.0279989
0.0319151
0.0319152
0.0279992
0.0208503
0.0124444
0.00564589
0.00308118
0.00545483
0.0104469
0.0143062
0.014297
0.0100219
0.00320167
-0.00436808
-0.0122835
-0.0206785
-0.0294344
-0.0377943
-0.0442261
-0.0469607
-0.0443336
-0.035141
-0.0197258
-0.000158629
0.020981
0.0412999
0.0583594
0.070003
0.0757547
0.0772673
0.0770468
0.0764147
0.0754369
0.0745326
0.0748287
0.0763238
0.0773428
0.0766903
0.0748156
0.0720634
0.0671534
0.0592826
0.049975
0.0410936
0.0326163
0.0242074
0.0169711
0.011599
0.00719237
0.0033456
0.000820704
0.0033484
0.0108198
0.0192585
0.0275498
0.0355134
0.0435532
0.0509912
0.0571539
0.0629238
0.0688038
0.073379
0.075429
0.0759373
0.0763351
0.0763214
0.0753026
0.0742303
0.0745647
0.0760519
0.0773232
0.077914
0.078005
0.0765628
0.0711803
0.0601919
0.0441979
0.0255563
0.0066425
-0.0105459
-0.0239556
-0.0319224
-0.0341733
-0.0316774
-0.0259045
-0.0185225
-0.011018
-0.00408038
0.00241149
0.00889821
0.0149929
0.0186147
0.0178428
0.0133237
0.00838793
0.00714017
0.0113828
0.0192123
0.0271833
0.0327683
0.0352891
0.0352895
0.0327692
0.0271842
0.0192129
0.0113831
0.00714056
0.00838849
0.0133242
0.0178428
0.0186139
0.0149913
0.00889587
0.00240862
-0.00408363
-0.0110214
-0.0185253
-0.0259061
-0.0316773
-0.0341714
-0.0319193
-0.0239518
-0.010542
0.00664591
0.0255588
0.0441992
0.060192
0.0711793
0.0765605
0.0780019
0.0779106
0.0773203
0.07605
0.074564
0.0742308
0.0753041
0.0763238
0.0763381
0.0759409
0.075433
0.0733826
0.0688063
0.0629249
0.057154
0.0509911
0.0435532
0.0355131
0.0275489
0.019257
0.0108182
0.00334769
0.00623299
0.0191267
0.0321726
0.0440979
0.0544514
0.0633022
0.069934
0.0738607
0.0762331
0.0780538
0.0787304
0.0776813
0.0760468
0.0752032
0.0748278
0.0742303
0.0741039
0.0756
0.0781393
0.0800484
0.080704
0.0804519
0.0786051
0.0730176
0.0621271
0.0466796
0.0292267
0.0121483
-0.00282465
-0.0140667
-0.0203183
-0.0214716
-0.0184368
-0.0126901
-0.00591639
0.000474651
0.00596994
0.0109907
0.0162417
0.0212792
0.0237888
0.0218372
0.0165012
0.0117381
0.0118481
0.0178889
0.0266383
0.0338661
0.0375324
0.0384315
0.038432
0.0375336
0.0338674
0.026639
0.017889
0.0118481
0.0117384
0.0165016
0.0218372
0.0237879
0.0212773
0.0162389
0.0109875
0.00596662
0.000471697
-0.00591841
-0.0126907
-0.0184356
-0.0214688
-0.0203145
-0.0140627
-0.00282097
0.0121512
0.0292286
0.0466803
0.0621265
0.0730159
0.0786025
0.0804488
0.080701
0.080046
0.0781378
0.0755993
0.0741038
0.0742308
0.0748287
0.0752044
0.0760484
0.0776835
0.0787329
0.0780563
0.0762355
0.0738634
0.069937
0.0633054
0.0544541
0.0440997
0.0321732
0.0191265
0.00623279
0.00896343
0.0268343
0.0437921
0.058568
0.0707309
0.0802459
0.0864089
0.0887398
0.088353
0.0866068
0.0838258
0.0801658
0.0768438
0.075066
0.0745332
0.0745647
0.0756
0.078417
0.0821071
0.084708
0.0853693
0.0845015
0.0817686
0.075405
0.064063
0.0486594
0.0319115
0.0162166
0.00310187
-0.00616347
-0.0106691
-0.0104557
-0.00643153
-0.000206088
0.00638669
0.0119537
0.0161616
0.0197314
0.0235923
0.0272269
0.0281945
0.0247359
0.0184827
0.0139864
0.0155593
0.0233358
0.0327467
0.0388695
0.0402914
0.0393903
0.0393909
0.0402929
0.0388709
0.0327474
0.0233357
0.0155591
0.0139864
0.0184829
0.0247358
0.0281935
0.0272246
0.0235891
0.019728
0.0161585
0.0119514
0.00638557
-0.00020564
-0.00642944
-0.0104524
-0.0106651
-0.00615963
0.00310511
0.016219
0.0319128
0.0486595
0.0640619
0.075403
0.0817659
0.0844987
0.085367
0.0847064
0.082106
0.0784162
0.0755993
0.074564
0.0745326
0.0750655
0.0768436
0.0801663
0.0838272
0.0866093
0.0883568
0.0887449
0.0864146
0.0802515
0.0707359
0.0585721
0.0437949
0.026836
0.00896393
0.0110374
0.0326229
0.0523631
0.0690406
0.0823187
0.0922081
0.098163
0.0997068
0.0977198
0.0936605
0.08856
0.0831571
0.0786528
0.0761197
0.075439
0.0760519
0.0781393
0.0821071
0.0868452
0.0902233
0.0910952
0.0897308
0.0860212
0.0786269
0.0665234
0.0508449
0.0344415
0.0196988
0.00794989
0.000167287
-0.00297549
-0.00155032
0.0035707
0.0105813
0.0173914
0.0225471
0.0258449
0.0282211
0.0306939
0.0326024
0.0314974
0.02603
0.0185659
0.0142546
0.0172511
0.0266023
0.0363859
0.0410795
0.0400048
0.0371834
0.0371841
0.0400065
0.0410812
0.0363867
0.0266021
0.0172504
0.0142542
0.0185658
0.0260297
0.0314962
0.0325999
0.0306906
0.0282178
0.0258423
0.0225456
0.0173914
0.0105827
0.00357336
-0.00154674
-0.00297164
0.00017078
0.0079526
0.0197005
0.034442
0.0508443
0.066522
0.0786248
0.0860189
0.0897287
0.0910936
0.0902224
0.0868444
0.082106
0.0781378
0.07605
0.0754369
0.0761178
0.0786514
0.0831565
0.0885608
0.0936632
0.0977248
0.0997135
0.0981704
0.0922152
0.0823252
0.0690463
0.0523679
0.0326261
0.0110385
0.0122356
0.0359795
0.057373
0.0751877
0.0890397
0.0989947
0.10482
0.106181
0.103683
0.0986449
0.0924413
0.0860994
0.0807353
0.0774281
0.0764178
0.0773232
0.0800484
0.084708
0.0902233
0.0944672
0.0959149
0.0944406
0.0899776
0.0815988
0.0686677
0.0525594
0.0362296
0.0220438
0.0111693
0.00435011
0.00213435
0.00452419
0.010714
0.0186894
0.026096
0.0314157
0.0345064
0.0363198
0.0376871
0.0376621
0.0339239
0.025832
0.0167166
0.0123549
0.0166019
0.0273022
0.037222
0.0403322
0.0367258
0.0320158
0.0320166
0.0367278
0.0403342
0.037223
0.027302
0.0166009
0.012354
0.0167159
0.0258313
0.0339224
0.0376595
0.0376838
0.0363167
0.0345044
0.0314152
0.026097
0.0186916
0.0107171
0.00452774
0.00213787
0.00435312
0.0111714
0.0220449
0.0362296
0.0525584
0.0686661
0.0815969
0.0899759
0.0944393
0.0959141
0.0944665
0.0902224
0.0847064
0.080046
0.0773203
0.0764147
0.0774253
0.0807332
0.0860985
0.0924422
0.098648
0.103688
0.106188
0.104829
0.0990027
0.0890472
0.0751947
0.0573791
0.0359836
0.0122371
0.0124453
0.0366083
0.0584461
0.0766642
0.09065
0.100446
0.106187
0.107797
0.105667
0.100848
0.0947138
0.0882661
0.08246
0.0784918
0.0770503
0.077914
0.080704
0.0853693
0.0910952
0.0959149
0.0979038
0.0963999
0.0912637
0.0819298
0.0681238
0.0514294
0.0348964
0.0209128
0.010542
0.00434864
0.00279195
0.00596457
0.0131237
0.0221055
0.03041
0.0365298
0.040293
0.0423911
0.0431461
0.0411983
0.034507
0.0233985
0.0123109
0.00762092
0.0127819
0.0244526
0.0342606
0.0358049
0.0298971
0.0235241
0.023525
0.0298992
0.035807
0.0342618
0.0244524
0.0127807
0.0076195
0.0123097
0.0233973
0.0345053
0.0411958
0.0431432
0.0423886
0.0402916
0.0365301
0.0304117
0.0221083
0.013127
0.00596795
0.00279502
0.00435106
0.0105436
0.0209133
0.0348959
0.0514281
0.0681221
0.0819283
0.0912626
0.0963992
0.0979033
0.0959141
0.0910936
0.085367
0.080701
0.0779106
0.0770468
0.0784888
0.082458
0.0882657
0.0947153
0.100851
0.105673
0.107804
0.106195
0.100454
0.0906581
0.0766718
0.0584526
0.0366126
0.0124467
0.0115222
0.0340245
0.05468
0.0721929
0.0856882
0.0951161
0.100888
0.103157
0.102149
0.098636
0.0937908
0.0883323
0.0829298
0.0788757
0.0772703
0.078005
0.0804519
0.0845015
0.0897308
0.0944406
0.0963999
0.0944697
0.0884338
0.0780163
0.0632108
0.0457474
0.0287637
0.0147231
0.00463591
-0.00110891
-0.00218097
0.0015512
0.00939666
0.0191633
0.0283994
0.0357171
0.0408331
0.0439403
0.0446071
0.0409882
0.0314304
0.017342
0.00424796
-0.000997802
0.0045913
0.0166302
0.0259067
0.0258419
0.0178876
0.0101145
0.0101153
0.0178895
0.0258439
0.0259078
0.01663
0.00458995
-0.000999561
0.00424632
0.0173405
0.0314287
0.040986
0.0446046
0.0439383
0.0408324
0.0357179
0.0284016
0.0191662
0.00939988
0.00155427
-0.00217837
-0.001107
0.00463692
0.0147231
0.0287629
0.045746
0.0632093
0.0780149
0.0884329
0.0944691
0.0963992
0.0944393
0.0897287
0.0844987
0.0804488
0.0780019
0.0772673
0.0788733
0.0829286
0.0883327
0.093793
0.0986398
0.102155
0.103164
0.100895
0.095124
0.0856962
0.0722002
0.054686
0.0340282
0.0115234
0.00944085
0.0280506
0.0455556
0.0608422
0.0729318
0.0816853
0.0875977
0.0908619
0.0915115
0.0901054
0.087576
0.0842194
0.0802732
0.0769871
0.0757565
0.0765628
0.0786051
0.0817686
0.0860212
0.0899776
0.0912637
0.0884338
0.0812443
0.0696404
0.0537907
0.0355077
0.0179937
0.00381494
-0.00603332
-0.0113514
-0.0120166
-0.00795366
0.000172551
0.0102753
0.0201642
0.0287096
0.0355014
0.0400936
0.041156
0.0363207
0.0243618
0.00774801
-0.00707041
-0.0129712
-0.00750241
0.00410159
0.0121531
0.0101608
0.000197742
-0.00883282
-0.00883221
0.000199234
0.0101624
0.0121539
0.00410112
-0.00750394
-0.0129732
-0.00707227
0.00774641
0.0243603
0.0363189
0.0411541
0.0400922
0.0355011
0.0287107
0.0201664
0.0102781
0.000175515
-0.00795093
-0.0120144
-0.0113499
-0.00603266
0.00381467
0.0179927
0.0355063
0.0537892
0.0696391
0.0812433
0.0884329
0.0912626
0.0899758
0.0860188
0.0817659
0.0786025
0.0765605
0.0757547
0.0769859
0.0802731
0.0842207
0.0875788
0.0901091
0.091516
0.0908671
0.0876037
0.081692
0.0729386
0.0608483
0.0455601
0.0280533
0.00944171
0.00649719
0.0194737
0.0321208
0.0437033
0.0533795
0.060992
0.0669415
0.0712254
0.0736018
0.0744933
0.0746713
0.0740116
0.0722317
0.0703768
0.0700035
0.0711803
0.0730176
0.075405
0.0786269
0.0815988
0.0819298
0.0780163
0.0696404
0.056937
0.0401892
0.0212226
0.00325395
-0.0110187
-0.0205415
-0.0252869
-0.0254231
-0.0210628
-0.0129116
-0.00285428
0.00737432
0.0170564
0.0256886
0.0321143
0.034036
0.028576
0.0149599
-0.00338596
-0.0193561
-0.025855
-0.0210515
-0.0107924
-0.00481362
-0.00919843
-0.0212402
-0.0314431
-0.0314428
-0.0212393
-0.00919749
-0.00481326
-0.010793
-0.021053
-0.025857
-0.0193581
-0.00338761
0.0149585
0.0285747
0.0340346
0.0321134
0.0256886
0.0170575
0.00737648
-0.00285157
-0.0129088
-0.0210603
-0.0254211
-0.0252857
-0.0205412
-0.0110194
0.00325257
0.0212209
0.0401876
0.0569356
0.0696391
0.0780149
0.0819283
0.0815969
0.0786248
0.075403
0.0730159
0.0711793
0.070003
0.070377
0.0722328
0.0740138
0.0746743
0.0744967
0.0736054
0.0712294
0.0669459
0.0609968
0.0533843
0.0437072
0.0321236
0.0194752
0.00649765
0.00317856
0.0096956
0.0165187
0.0233965
0.0298073
0.0356655
0.0412124
0.0461195
0.049799
0.052573
0.0551574
0.0571173
0.0576723
0.0575586
0.0583585
0.0601919
0.0621271
0.064063
0.0665234
0.0686677
0.0681238
0.0632108
0.0537907
0.0401892
0.0227556
0.00324654
-0.015149
-0.0295345
-0.0386715
-0.0426466
-0.0419802
-0.0371076
-0.028861
-0.0188671
-0.00826883
0.00271289
0.0134634
0.0220555
0.0252465
0.0197683
0.00535478
-0.0137682
-0.0301911
-0.0371714
-0.0335432
-0.0254574
-0.0222341
-0.0292525
-0.0432294
-0.0543906
-0.0543904
-0.043229
-0.0292521
-0.022234
-0.025458
-0.0335446
-0.0371733
-0.0301932
-0.01377
0.0053533
0.0197672
0.0252455
0.0220549
0.0134636
0.00271416
-0.00826663
-0.0188643
-0.0288582
-0.0371052
-0.0419785
-0.0426458
-0.0386718
-0.0295358
-0.0151509
0.00324441
0.0227537
0.0401876
0.0537892
0.0632093
0.0681221
0.0686661
0.066522
0.0640619
0.0621265
0.060192
0.0583594
0.0575603
0.0576746
0.0571201
0.0551604
0.0525759
0.0498019
0.0461222
0.0412151
0.0356682
0.0298096
0.0233982
0.0165197
0.00969608
0.0031787
-0.000126253
-0.000128006
0.000610486
0.00232032
0.00485291
0.00825081
0.0126591
0.017481
0.0217939
0.025792
0.0301752
0.0343394
0.0371341
0.0389651
0.0412978
0.0441979
0.0466796
0.0486594
0.0508449
0.0525594
0.0514294
0.0457474
0.0355077
0.0212226
0.00324654
-0.016812
-0.0358117
-0.0505769
-0.0595417
-0.0628003
-0.0612129
-0.0556118
-0.0470151
-0.0367706
-0.0253998
-0.0126831
0.000543234
0.0115461
0.0162628
0.0112334
-0.00324599
-0.0223494
-0.0387061
-0.0461642
-0.0441607
-0.0387995
-0.0385852
-0.0480246
-0.0634329
-0.075144
-0.075144
-0.0634329
-0.0480245
-0.0385852
-0.0387998
-0.0441617
-0.0461659
-0.0387083
-0.0223516
-0.00324779
0.0112321
0.016262
0.011546
0.000543892
-0.0126816
-0.0253974
-0.0367677
-0.0470123
-0.0556095
-0.0612116
-0.0628003
-0.0595429
-0.050579
-0.0358144
-0.0168146
0.00324441
0.0212209
0.0355063
0.045746
0.0514281
0.0525584
0.0508443
0.0486595
0.0466803
0.0441992
0.0412999
0.0389678
0.0371373
0.0343425
0.030178
0.0257944
0.021796
0.0174827
0.0126602
0.00825128
0.00485281
0.00231982
0.000609907
-0.000128375
-0.000126365
-0.00320941
-0.00935581
-0.0145034
-0.0179989
-0.0196795
-0.0193916
-0.0169546
-0.0130152
-0.00871719
-0.00406089
0.00158097
0.00755154
0.0125144
0.0165863
0.0209779
0.0255563
0.0292267
0.0319115
0.0344415
0.0362296
0.0348964
0.0287637
0.0179937
0.00325395
-0.015149
-0.0358117
-0.0556688
-0.071238
-0.0805176
-0.0834701
-0.0812037
-0.0749282
-0.0658365
-0.0549854
-0.042347
-0.0274407
-0.0114793
0.00201675
0.00835641
0.00409172
-0.0099098
-0.0284398
-0.0444477
-0.0525018
-0.0525018
-0.0501617
-0.0528631
-0.0641862
-0.0802964
-0.0920418
-0.0920419
-0.0802966
-0.0641863
-0.0528631
-0.0501618
-0.0525025
-0.0525033
-0.0444499
-0.0284422
-0.00991193
0.00409032
0.00835588
0.00201709
-0.0114781
-0.0274386
-0.0423443
-0.0549825
-0.0658339
-0.0749265
-0.0812033
-0.0834709
-0.0805197
-0.0712408
-0.0556718
-0.0358144
-0.0151509
0.00325256
0.0179927
0.0287629
0.0348959
0.0362296
0.034442
0.0319128
0.0292286
0.0255588
0.020981
0.0165897
0.0125179
0.00755458
0.00158326
-0.00405928
-0.00871616
-0.0130149
-0.0169552
-0.0193931
-0.0196816
-0.018001
-0.0145051
-0.00935682
-0.00320972
-0.00583375
-0.0172635
-0.0275839
-0.0358036
-0.0415776
-0.0447317
-0.0449335
-0.0426004
-0.038913
-0.0341176
-0.0277468
-0.0204189
-0.0134721
-0.00700914
-0.00016228
0.0066425
0.0121483
0.0162166
0.0196988
0.0220438
0.0209128
0.0147231
0.00381494
-0.0110187
-0.0295345
-0.0505769
-0.071238
-0.0877989
-0.0977974
-0.100962
-0.0985349
-0.0919918
-0.0825908
-0.0710574
-0.0569284
-0.0396705
-0.0209866
-0.00508651
0.00293682
-0.000179053
-0.0130542
-0.0303719
-0.0456998
-0.0544412
-0.0568028
-0.057777
-0.0633483
-0.0761255
-0.0923395
-0.103696
-0.103697
-0.0923401
-0.076126
-0.0633485
-0.0577772
-0.0568034
-0.0544426
-0.045702
-0.0303745
-0.0130564
-0.000180294
0.00293672
-0.00508556
-0.0209848
-0.039668
-0.0569256
-0.0710547
-0.0825887
-0.091991
-0.0985355
-0.100964
-0.0978002
-0.0878021
-0.0712408
-0.050579
-0.0295358