/*--------------------------------*- C++ -*----------------------------------*\
  =========                 |
  \\      /  F ield         | OpenFOAM: The Open Source CFD Toolbox
   \\    /   O peration     | Website:  https://openfoam.org
    \\  /    A nd           | Version:  10
     \\/     M anipulation  |
\*---------------------------------------------------------------------------*/
FoamFile
{
    format      ascii;
    class       volScalarField;
    location    "27";
    object      h;
}
// * * * * * * * * * * * * * * * * * * * * * * * * * * * * * * * * * * * * * //

dimensions      [0 1 0 0 0 0 0];

internalField   nonuniform List<scalar> 
10000
(
-0.00069162
-0.00112463
-0.000133251
0.000573149
-3.46851e-05
-0.000450387
0.000245983
0.000430657
-0.000472745
-0.00104468
-0.00119865
-0.00143244
-0.000997013
0.000335969
0.00173359
0.00169911
-0.000947147
-0.00453354
-0.00658038
-0.00717212
-0.0070286
-0.00584919
-0.00305866
0.00127394
0.00581123
0.00917675
0.0113721
0.0131932
0.0149654
0.0160911
0.015339
0.012085
0.00687067
0.00097575
-0.00404288
-0.00734424
-0.00870798
-0.00858073
-0.00761909
-0.00638723
-0.00531698
-0.00451915
-0.00406438
-0.00382884
-0.0037765
-0.00378942
-0.00385039
-0.00390195
-0.00394766
-0.00396863
-0.00396866
-0.00394775
-0.00390211
-0.0038506
-0.00378969
-0.0037768
-0.00382917
-0.00406471
-0.00451947
-0.00531725
-0.00638742
-0.0076192
-0.00858072
-0.00870784
-0.00734394
-0.00404239
0.000976432
0.00687154
0.0120859
0.0153399
0.0160918
0.0149658
0.0131933
0.0113719
0.00917654
0.00581089
0.00127337
-0.00305935
-0.00584978
-0.00702904
-0.00717246
-0.00658081
-0.00453378
-0.000946594
0.00170013
0.00173429
0.00033612
-0.000997396
-0.00143286
-0.00119865
-0.00104475
-0.000473029
0.000430694
0.00024616
-0.000450357
-3.43553e-05
0.00057368
-0.000133444
-0.00112561
-0.000692199
-0.00112463
-0.00144222
0.000666077
0.00102103
-0.00169643
-0.00245483
0.00072432
0.00228153
-0.000415941
-0.00332939
-0.00406432
-0.00338235
-0.00166427
0.000937669
0.00348829
0.0025693
-0.00440563
-0.0133421
-0.0189618
-0.02097
-0.0202569
-0.0160042
-0.00679762
0.00659121
0.0199736
0.0295313
0.0351715
0.0390736
0.0424217
0.0437599
0.0399416
0.0294916
0.0139079
-0.00301786
-0.0169792
-0.0255333
-0.0281071
-0.0261243
-0.0215096
-0.0161425
-0.0112705
-0.00742138
-0.00474705
-0.00298875
-0.00196684
-0.00136194
-0.00106124
-0.000889151
-0.000818569
-0.000783783
-0.000783792
-0.000818597
-0.000889198
-0.00106131
-0.00136203
-0.00196696
-0.00298888
-0.00474721
-0.00742157
-0.0112708
-0.0161427
-0.02151
-0.0261247
-0.0281075
-0.0255337
-0.0169794
-0.00301767
0.0139086
0.0294927
0.0399429
0.0437611
0.0424224
0.039074
0.0351719
0.0295318
0.0199738
0.00659057
-0.00679899
-0.0160057
-0.0202583
-0.0209712
-0.0189631
-0.013343
-0.00440471
0.00257158
0.00349006
0.000938254
-0.00166466
-0.00338325
-0.00406514
-0.00333004
-0.000415736
0.00228295
0.000724924
-0.00245604
-0.00169699
0.00102226
0.000666655
-0.00144353
-0.00112561
-0.000133251
0.000666077
0.00192794
8.20276e-05
-0.00412537
-0.00437938
0.00058138
0.00363906
0.000407543
-0.0049878
-0.0066222
-0.00405091
-0.00117117
0.000679214
0.00195699
-0.000593488
-0.00900456
-0.01969
-0.0285064
-0.033179
-0.0323899
-0.0245992
-0.00832941
0.0137723
0.0349768
0.0499869
0.0584483
0.0633864
0.0668826
0.0670335
0.0597475
0.0430319
0.0188277
-0.00706368
-0.028491
-0.0414041
-0.0449406
-0.0411573
-0.0329859
-0.0235879
-0.0148473
-0.00792397
-0.00290491
0.000389838
0.00243518
0.00361809
0.00426987
0.00461313
0.00477785
0.00484588
0.00484592
0.00477795
0.00461331
0.00427011
0.00361838
0.00243551
0.000390208
-0.00290454
-0.00792363
-0.014847
-0.0235877
-0.032986
-0.0411577
-0.0449413
-0.0414051
-0.028492
-0.0070643
0.0188277
0.0430325
0.0597485
0.0670345
0.0668833
0.063387
0.0584493
0.0499882
0.0349779
0.0137723
-0.00833098
-0.0246016
-0.0323924
-0.0331812
-0.0285081
-0.0196908
-0.00900371
-0.000591064
0.0019592
0.000680212
-0.00117098
-0.00405189
-0.00662433
-0.00498906
0.00040911
0.00364231
0.000582332
-0.00438216
-0.00412798
8.27737e-05
0.00192997
0.000666664
-0.000133436
0.000573149
0.00102103
8.20276e-05
-0.00146399
-0.00221255
-0.001801
-0.000770915
-8.66899e-06
-0.00162088
-0.00546616
-0.00648057
-0.00314632
-0.000452128
-0.000555701
-0.0025391
-0.00679088
-0.013439
-0.0230979
-0.0346604
-0.0429957
-0.0434179
-0.0326712
-0.0101137
0.0192072
0.047319
0.0682202
0.0808227
0.088044
0.092181
0.0912892
0.0814042
0.0600521
0.0293114
-0.00410086
-0.0329558
-0.0515666
-0.0586656
-0.0560041
-0.0472902
-0.0363563
-0.0258158
-0.0173462
-0.0111254
-0.0071326
-0.00464704
-0.00332651
-0.00259774
-0.00228865
-0.00213312
-0.00209024
-0.00209025
-0.00213318
-0.00228874
-0.00259786
-0.00332666
-0.00464721
-0.00713279
-0.0111256
-0.0173464
-0.025816
-0.0363566
-0.0472905
-0.0560046
-0.0586662
-0.0515673
-0.0329562
-0.00410058
0.0293125
0.0600541
0.0814065
0.0912914
0.0921826
0.0880451
0.0808239
0.0682216
0.0473199
0.0192068
-0.0101162
-0.0326752
-0.043422
-0.0429988
-0.0346618
-0.0230976
-0.0134378
-0.00678926
-0.00253717
-0.00055415
-0.000451042
-0.00314651
-0.0064825
-0.00546756
-0.0016201
-7.01882e-06
-0.000770085
-0.0018016
-0.00221399
-0.00146468
8.2785e-05
0.00102227
0.000573684
-3.46851e-05
-0.00169643
-0.00412537
-0.00221255
0.00309158
0.0033269
-0.0028291
-0.00693734
-0.00628398
-0.00495378
-0.00331278
-0.000825774
-0.000102281
-0.00335709
-0.00993278
-0.0156257
-0.0194174
-0.0267374
-0.0386432
-0.0488552
-0.049789
-0.0360655
-0.00864746
0.0259935
0.059889
0.0864054
0.103122
0.111766
0.114246
0.10978
0.0958082
0.069991
0.0346151
-0.00417326
-0.0385226
-0.0618927
-0.0722848
-0.0706952
-0.0614069
-0.0483829
-0.0353705
-0.024255
-0.0158724
-0.010116
-0.00640422
-0.00421976
-0.00293553
-0.00227708
-0.00191699
-0.00178283
-0.00178286
-0.00191705
-0.00227719
-0.00293568
-0.00421997
-0.00640447
-0.0101163
-0.0158728
-0.0242555
-0.035371
-0.0483836
-0.0614078
-0.0706963
-0.0722861
-0.061894
-0.0385235
-0.00417332
0.0346162
0.0699933
0.0958113
0.109783
0.114249
0.111768
0.103124
0.0864072
0.05989
0.0259927
-0.00865058
-0.0360707
-0.0497944
-0.0488589
-0.0386442
-0.0267364
-0.0194163
-0.0156258
-0.00993233
-0.00335516
-9.97957e-05
-0.000824014
-0.00331263
-0.00495487
-0.00628604
-0.00693987
-0.00282903
0.00333069
0.0030944
-0.00221398
-0.00412798
-0.001697
-3.43678e-05
-0.000450387
-0.00245483
-0.00437938
-0.001801
0.0033269
0.00252388
-0.00468859
-0.0092515
-0.00708593
-0.0024476
-0.000270474
-0.00138296
-0.00406194
-0.00950537
-0.0177645
-0.0234646
-0.0262901
-0.0318945
-0.0414305
-0.0498426
-0.0483667
-0.0315406
-0.00172734
0.0351797
0.0720326
0.10201
0.121182
0.129298
0.127856
0.118376
0.10032
0.0724139
0.0364295
-0.00334279
-0.0392473
-0.0651577
-0.077656
-0.0772281
-0.0676678
-0.0530655
-0.0379405
-0.024389
-0.014079
-0.0066634
-0.0019973
0.000896121
0.00244817
0.00330093
0.00368185
0.00384347
0.00384349
0.00368193
0.00330105
0.00244835
0.000896339
-0.00199703
-0.00666309
-0.0140787
-0.0243887
-0.0379403
-0.0530654
-0.0676681
-0.0772287
-0.077657
-0.065159
-0.0392485
-0.00334346
0.0364298
0.072415
0.100322
0.118379
0.127859
0.1293
0.121185
0.102012
0.0720341
0.0351795
-0.00172977
-0.0315453
-0.0483725
-0.0498468
-0.0414319
-0.0318938
-0.0262892
-0.0234653
-0.0177652
-0.00950435
-0.00405978
-0.00138047
-0.000268248
-0.00244721
-0.00708838
-0.00925527
-0.00468955
0.00252759
0.00333069
-0.0018016
-0.00438217
-0.00245606
-0.000450367
0.000245983
0.00072432
0.00058138
-0.000770915
-0.0028291
-0.00468859
-0.00590162
-0.00602108
-0.00349841
0.00047804
-8.55109e-05
-0.00601888
-0.011739
-0.016728
-0.0227382
-0.0283428
-0.0334413
-0.0387003
-0.0441879
-0.0470821
-0.040674
-0.021898
0.00751197
0.0439648
0.0819671
0.114992
0.137054
0.145088
0.140079
0.125744
0.103882
0.0751915
0.0400703
0.00103139
-0.035807
-0.0649326
-0.0812893
-0.0847882
-0.0774425
-0.0637985
-0.048093
-0.0333934
-0.021651
-0.012963
-0.00735722
-0.00377481
-0.00186158
-0.000753565
-0.000286526
-6.73161e-05
-6.73213e-05
-0.000286545
-0.000753589
-0.00186162
-0.00377483
-0.00735725
-0.012963
-0.021651
-0.0333933
-0.048093
-0.0637986
-0.0774428
-0.0847888
-0.0812901
-0.0649336
-0.0358078
0.00103102
0.0400707
0.0751927
0.103884
0.125746
0.140082
0.145092
0.137057
0.114995
0.0819686
0.0439648
0.00751002
-0.021902
-0.0406794
-0.0470872
-0.0441908
-0.0387011
-0.0334409
-0.0283422
-0.0227382
-0.0167281
-0.0117389
-0.00601758
-8.255e-05
0.000480408
-0.00349839
-0.00602246
-0.00590317
-0.00468956
-0.00282903
-0.000770086
0.000582327
0.000724924
0.000246169
0.000430657
0.00228153
0.00363906
-8.66899e-06
-0.00693734
-0.0092515
-0.00602108
-0.00350104
-0.00198531
2.44189e-05
-0.00252352
-0.010433
-0.0177282
-0.0224589
-0.0270999
-0.0341112
-0.0418787
-0.0457216
-0.0447136
-0.0389578
-0.0269916
-0.00810044
0.0185195
0.0523686
0.0904122
0.126212
0.151302
0.159487
0.150993
0.130988
0.104364
0.0741602
0.0397561
0.00239353
-0.034712
-0.0661783
-0.0865145
-0.0941584
-0.0894682
-0.0769897
-0.0603633
-0.0440394
-0.0298328
-0.0190752
-0.0114539
-0.00652028
-0.0034989
-0.00175505
-0.000843887
-0.000447879
-0.000447881
-0.000843942
-0.00175511
-0.00349903
-0.00652043
-0.0114541
-0.0190755
-0.0298332
-0.0440399
-0.0603639
-0.0769906
-0.0894694
-0.0941599
-0.0865163
-0.0661801
-0.0347135
0.00239261
0.0397559
0.0741611
0.104366
0.130992
0.150998
0.159492
0.151306
0.126216
0.0904136
0.052368
0.0185174
-0.00810377
-0.0269959
-0.0389627
-0.0447181
-0.0457247
-0.0418799
-0.0341105
-0.027099
-0.0224591
-0.0177288
-0.0104322
-0.00252047
2.75638e-05
-0.00198388
-0.00350063
-0.00602248
-0.00925529
-0.00693987
-7.0176e-06
0.00364231
0.00228297
0.000430709
-0.000472745
-0.000415941
0.000407543
-0.00162088
-0.00628398
-0.00708593
-0.00349841
-0.00198531
-0.00310922
-0.00467449
-0.00874539
-0.0155883
-0.0225336
-0.0278063
-0.0328296
-0.0410302
-0.0490342
-0.0489862
-0.0392769
-0.0236285
-0.00638354
0.0115556
0.0330255
0.0608363
0.0948415
0.129363
0.154802
0.162724
0.152254
0.128888
0.100387
0.0713351
0.0410579
0.00892979
-0.025062
-0.0560994
-0.0793844
-0.0909389
-0.0902227
-0.0801828
-0.0644567
-0.0478251
-0.0324923
-0.0206468
-0.0118874
-0.00633865
-0.00278823
-0.000902174
0.00015004
0.000545927
0.000545935
0.000150039
-0.000902161
-0.00278821
-0.00633863
-0.0118873
-0.0206468
-0.0324922
-0.0478251
-0.0644567
-0.080183
-0.0902232
-0.0909396
-0.0793853
-0.0561003
-0.0250629
0.00892921
0.0410575
0.0713352
0.100388
0.128891
0.152258
0.162729
0.154806
0.129366
0.0948425
0.0608356
0.0330239
0.011554
-0.00638544
-0.0236317
-0.0392816
-0.0489914
-0.0490377
-0.0410307
-0.0328287
-0.027806
-0.0225339
-0.015588
-0.00874355
-0.00467204
-0.0031074
-0.0019839
-0.00349841
-0.00708837
-0.00628603
-0.0016201
0.00040911
-0.00041573
-0.000473029
-0.00104468
-0.00332939
-0.0049878
-0.00546616
-0.00495378
-0.0024476
0.00047804
2.44189e-05
-0.00467449
-0.0119245
-0.0183854
-0.0226294
-0.0273321
-0.0326623
-0.0385087
-0.0469765
-0.0528884
-0.047499
-0.0295439
-0.00532169
0.0170143
0.0347181
0.0512204
0.0716895
0.0983593
0.127767
0.150952
0.158515
0.147851
0.12352
0.0948357
0.0674775
0.0418455
0.0152624
-0.0145131
-0.0444773
-0.0703839
-0.0863309
-0.0907661
-0.0842788
-0.0707849
-0.0543877
-0.0385216
-0.0254421
-0.015586
-0.00905562
-0.00486384
-0.00256217
-0.00129087
-0.000801385
-0.000801403
-0.0012909
-0.00256223
-0.00486389
-0.00905569
-0.015586
-0.0254421
-0.0385216
-0.0543876
-0.0707848
-0.0842788
-0.0907661
-0.086331
-0.0703841
-0.0444773
-0.0145131
0.0152623
0.0418452
0.0674772
0.0948358
0.123521
0.147854
0.158519
0.150956
0.12777
0.0983602
0.0716893
0.0512202
0.0347187
0.0170149
-0.00532303
-0.0295485
-0.0475059
-0.0528945
-0.0469789
-0.0385079
-0.0326609
-0.0273314
-0.02263
-0.0183865
-0.011924
-0.00467205
2.75538e-05
0.00048042
-0.00244718
-0.00495487
-0.00546757
-0.00498907
-0.00333005
-0.00104476
-0.00119865
-0.00406432
-0.0066222
-0.00648057
-0.00331278
-0.000270474
-8.55109e-05
-0.00252352
-0.00874539
-0.0183854
-0.0247268
-0.0269476
-0.031646
-0.0386177
-0.0453632
-0.0513237
-0.051159
-0.0395758
-0.0165043
0.0122354
0.0376655
0.0560649
0.0702718
0.0852782
0.104639
0.127568
0.146889
0.153615
0.142959
0.117713
0.0874048
0.0591402
0.0353365
0.0123891
-0.0132781
-0.0413442
-0.0680759
-0.0870897
-0.0952869
-0.0914956
-0.0792168
-0.0620221
-0.0444396
-0.0288094
-0.0166853
-0.00800592
-0.00234066
0.00110409
0.00299553
0.00381706
0.00381706
0.00299557
0.00110413
-0.00234058
-0.00800585
-0.0166852
-0.0288093
-0.0444396
-0.0620222
-0.0792171
-0.0914961
-0.0952878
-0.0870907
-0.0680771
-0.0413454
-0.0132794
0.0123877
0.035335
0.0591387
0.0874042
0.117714
0.142962
0.153619
0.146894
0.127572
0.104642
0.0852794
0.0702729
0.0560664
0.0376671
0.012235
-0.0165082
-0.0395828
-0.0511668
-0.0513289
-0.0453645
-0.0386165
-0.031644
-0.026947
-0.0247287
-0.0183865
-0.00874355
-0.00252046
-8.25353e-05
-0.000268244
-0.00331264
-0.00648251
-0.00662433
-0.00406515
-0.00119866
-0.00143244
-0.00338235
-0.00405091
-0.00314632
-0.000825774
-0.00138296
-0.00601888
-0.010433
-0.0155883
-0.0226294
-0.0269476
-0.030812
-0.0387873
-0.0468081
-0.0508728
-0.0488037
-0.0389186
-0.0220686
0.00202687
0.0301286
0.0549417
0.0730072
0.0849879
0.0941767
0.105168
0.120015
0.134999
0.142768
0.13602
0.114676
0.0863355
0.0589442
0.0370772
0.0173919
-0.004353
-0.0305052
-0.0581865
-0.0812646
-0.094886
-0.096311
-0.08774
-0.0723008
-0.0549421
-0.0384218
-0.0251266
-0.0151827
-0.00860066
-0.00444354
-0.00217635
-0.00115515
-0.00115517
-0.00217637
-0.00444359
-0.00860072
-0.0151827
-0.0251267
-0.038422
-0.0549423
-0.072301
-0.0877404
-0.0963115
-0.0948868
-0.0812655
-0.0581874
-0.030506
-0.0043538
0.0173909
0.037076
0.058943
0.0863351
0.114677
0.136023
0.142772
0.135004
0.120019
0.10517
0.0941785
0.0849896
0.0730088
0.0549432
0.030129
0.00202482
-0.0220731
-0.0389249
-0.0488105
-0.0508777
-0.0468101
-0.0387866
-0.0308098
-0.026947
-0.02263
-0.015588
-0.0104322
-0.00601758
-0.00138048
-0.000824024
-0.00314651
-0.00405188
-0.00338325
-0.00143286
-0.000997013
-0.00166427
-0.00117117
-0.000452128
-0.000102281
-0.00406194
-0.011739
-0.0177282
-0.0225336
-0.0273321
-0.031646
-0.0387873
-0.047482
-0.0522283
-0.0498973
-0.0378356
-0.0193987
0.000657002
0.0240063
0.0494904
0.0724849
0.0892343
0.0974323
0.098992
0.0993212
0.103631
0.113048
0.122573
0.122807
0.109945
0.0874777
0.0633967
0.0440284
0.0274667
0.00972337
-0.0139867
-0.0417938
-0.0686228
-0.0879669
-0.0957049
-0.0922235
-0.0800159
-0.0640493
-0.047529
-0.0335923
-0.0227245
-0.0153881
-0.0106252
-0.00802499
-0.00682996
-0.00683001
-0.00802511
-0.0106254
-0.0153884
-0.0227248
-0.0335926
-0.0475294
-0.0640497
-0.0800163
-0.092224
-0.0957054
-0.0879673
-0.0686229
-0.0417936
-0.0139862
0.009724
0.0274671
0.0440285
0.0633966
0.087478
0.109946
0.122809
0.122575
0.11305
0.103632
0.0993227
0.098994
0.097435
0.089237
0.0724871
0.0494919
0.0240063
0.000655354
-0.0194023
-0.0378418
-0.0499042
-0.0522335
-0.0474845
-0.0387866
-0.031644
-0.0273314
-0.0225339
-0.0177288
-0.0117389
-0.00405978
-9.97906e-05
-0.000451032
-0.00117098
-0.00166466
-0.000997395
0.000335969
0.000937669
0.000679214
-0.000555701
-0.00335709
-0.00950537
-0.016728
-0.0224589
-0.0278063
-0.0326623
-0.0386177
-0.0468081
-0.0522283
-0.0517671
-0.0426178
-0.0224927
0.000968923
0.0224363
0.0443983
0.067381
0.0895759
0.105971
0.111754
0.107214
0.0973555
0.0898318
0.090626
0.0978921
0.102111
0.0961417
0.0787217
0.057499
0.0396805
0.0262251
0.0136239
-0.00472095
-0.0285376
-0.0549275
-0.0761135
-0.0874786
-0.0869639
-0.0767208
-0.0609671
-0.0436102
-0.0281474
-0.0156863
-0.0069834
-0.00120332
0.00202171
0.00352183
0.00352185
0.00202175
-0.00120323
-0.00698329
-0.0156861
-0.0281472
-0.0436099
-0.0609668
-0.0767206
-0.0869637
-0.0874785
-0.0761133
-0.0549274
-0.0285373
-0.0047207
0.013624
0.0262246
0.0396795
0.0574978
0.0787208
0.0961414
0.102111
0.097892
0.0906258
0.0898322
0.0973577
0.107218
0.111759
0.105976
0.0895792
0.067383
0.0443993
0.0224362
0.000967334
-0.0224974
-0.0426254
-0.0517744
-0.0522335
-0.0468101
-0.0386165
-0.0326609
-0.027806
-0.0224591
-0.016728
-0.00950434
-0.00335516
-0.000554151
0.000680204
0.000938253
0.000336124
0.00173359
0.00348829
0.00195699
-0.0025391
-0.00993278
-0.0177645
-0.0227382
-0.0270999
-0.0328296
-0.0385087
-0.0453632
-0.0508728
-0.0498973
-0.0426178
-0.0264069
-0.00160821
0.022482
0.0423207
0.0601442
0.0788432
0.0991042
0.114772
0.119793
0.11266
0.0969557
0.0812147
0.0749092
0.0794092
0.086915
0.0872644
0.0747013
0.0553213
0.0364052
0.0229467
0.0120472
-0.00276748
-0.0237075
-0.0497745
-0.0730095
-0.0885041
-0.0916108
-0.0842743
-0.0692142
-0.051491
-0.0343656
-0.0202189
-0.00972211
-0.00267781
0.00147727
0.00339212
0.00339215
0.0014773
-0.00267771
-0.00972201
-0.0202187
-0.0343654
-0.0514908
-0.069214
-0.0842742
-0.0916108
-0.0885043
-0.0730096
-0.0497747
-0.0237077
-0.00276788
0.0120465
0.0229454
0.0364036
0.0553198
0.0747001
0.0872638
0.0869143
0.0794083
0.0749085
0.0812153
0.0969588
0.112665
0.119799
0.114778
0.0991075
0.0788445
0.060145
0.0423214
0.0224822
-0.0016101
-0.0264127
-0.0426254
-0.0499042
-0.0508777
-0.0453645
-0.0385079
-0.0328286
-0.027099
-0.0227382
-0.0177652
-0.00993234
-0.00253718
0.0019592
0.00349007
0.0017343
0.00169911
0.0025693
-0.000593488
-0.00679088
-0.0156257
-0.0234646
-0.0283428
-0.0341112
-0.0410302
-0.0469765
-0.0513237
-0.0488037
-0.0378356
-0.0224927
-0.00160821
0.0230459
0.0452826
0.0624667
0.0747077
0.0870676
0.101534
0.112494
0.114833
0.10613
0.0885443
0.0699919
0.0610551
0.0657037
0.0787529
0.0873958
0.0822206
0.0657899
0.0451968
0.0292665
0.0165405
0.00248591
-0.0180571
-0.0449706
-0.0718562
-0.092783
-0.101513
-0.0988949
-0.0863328
-0.0696141
-0.0517671
-0.0365585
-0.0245401
-0.0164186
-0.0113603
-0.00906458
-0.0090646
-0.0113604
-0.0164188
-0.0245404
-0.0365589
-0.0517675
-0.0696146
-0.0863335
-0.0988958
-0.101514
-0.0927841
-0.0718572
-0.0449715
-0.0180576
0.00248545
0.01654
0.029266
0.0451964
0.0657902
0.0822213
0.0873968
0.0787532
0.0657029
0.0610539
0.0699916
0.0885463
0.106134
0.114838
0.112498
0.101537
0.0870687
0.0747086
0.0624682
0.0452842
0.0230468
-0.00161008
-0.0224974
-0.0378418
-0.0488105
-0.0513289
-0.0469789
-0.0410307
-0.0341105
-0.0283422
-0.0234653
-0.0156258
-0.00678925
-0.00059105
0.0025716
0.00170013
-0.000947147
-0.00440563
-0.00900456
-0.013439
-0.0194174
-0.0262901
-0.0334413
-0.0418787
-0.0490342
-0.0528884
-0.051159
-0.0389186
-0.0193987
0.000968923
0.022482
0.0452826
0.067358
0.0839028
0.0923747
0.0983464
0.104367
0.107684
0.104728
0.0928948
0.0734467
0.0526433
0.0406046
0.0440718
0.0612055
0.0783894
0.083666
0.0742249
0.0565543
0.041228
0.0292817
0.0183281
0.000672651
-0.0241958
-0.0528065
-0.0776562
-0.0921943
-0.0948071
-0.0862588
-0.0717644
-0.0546509
-0.0393446
-0.0267195
-0.0180656
-0.0125273
-0.0100264
-0.0100264
-0.0125273
-0.0180657
-0.0267196
-0.0393448
-0.0546511
-0.0717646
-0.086259
-0.0948074
-0.0921946
-0.0776564
-0.0528066
-0.0241956
0.000673129
0.0183287
0.0292822
0.0412285
0.0565549
0.074226
0.0836674
0.0783902
0.0612049
0.0440695
0.0406017
0.0526414
0.0734467
0.0928971
0.104732
0.107688
0.104371
0.0983492
0.0923774
0.0839059
0.0673607
0.0452843
0.0224822
0.000967342
-0.0194023
-0.0389249
-0.0511668
-0.0528945
-0.0490377
-0.0418799
-0.0334409
-0.0262892
-0.0194163
-0.0134378
-0.0090037
-0.00440471
-0.000946608
-0.00453354
-0.0133421
-0.01969
-0.0230979
-0.0267374
-0.0318945
-0.0387003
-0.0457216
-0.0489862
-0.047499
-0.0395758
-0.0220686
0.000657002
0.0224363
0.0423207
0.0624667
0.0839028
0.100306
0.107025
0.107989
0.107089
0.104611
0.0975351
0.083656
0.0631369
0.0400637
0.02328
0.0219935
0.0380747
0.0598174
0.0736464
0.0712298
0.0577414
0.0433639
0.0329457
0.0255417
0.0127216
-0.00748166
-0.0346853
-0.060446
-0.0787107
-0.0847909
-0.0794456
-0.0661775
-0.0493228
-0.0330863
-0.0193898
-0.00957633
-0.00325801
-0.000320295
-0.000320305
-0.00325797
-0.00957629
-0.0193897
-0.0330862
-0.0493225
-0.0661772
-0.0794452
-0.0847905
-0.0787103
-0.0604455
-0.0346845
-0.00748066
0.0127226
0.0255426
0.0329462
0.0433643
0.0577418
0.0712304
0.0736468
0.0598166
0.0380723
0.0219895
0.0232758
0.0400609
0.0631362
0.0836574
0.0975382
0.104615
0.107094
0.107994
0.10703
0.10031
0.0839059
0.0624682
0.0423214
0.0224362
0.000655336
-0.0220731
-0.0395828
-0.047506
-0.0489914
-0.0457247
-0.0387011
-0.0318938
-0.0267364
-0.0230976
-0.0196908
-0.013343
-0.0045338
-0.00658038
-0.0189618
-0.0285064
-0.0346604
-0.0386432
-0.0414305
-0.0441879
-0.0447136
-0.0392769
-0.0295439
-0.0165043
0.00202687
0.0240063
0.0443983
0.0601442
0.0747077
0.0923747
0.107025
0.111581
0.108026
0.102215
0.0967086
0.0894232
0.0780523
0.060981
0.0398612
0.0208502
0.0142853
0.0255537
0.04701
0.0645746
0.0659787
0.0537957
0.0371055
0.0248939
0.0174657
0.00787225
-0.00849712
-0.0332227
-0.0588796
-0.0794883
-0.0881783
-0.0853313
-0.0726476
-0.0554907
-0.0375458
-0.0221601
-0.0104847
-0.00297006
0.00068276
0.000682753
-0.00297001
-0.0104846
-0.02216
-0.0375457
-0.0554906
-0.0726474
-0.0853312
-0.0881783
-0.0794884
-0.0588796
-0.0332228
-0.00849713
0.00787207
0.0174652
0.0248932
0.0371047
0.0537953
0.0659787
0.0645746
0.047009
0.0255512
0.0142819
0.0208471
0.0398595
0.060981
0.0780537
0.0894256
0.0967119
0.102219
0.108031
0.111586
0.10703
0.0923774
0.0747086
0.060145
0.0443993
0.0240063
0.00202482
-0.0165082
-0.0295485
-0.0392816
-0.0447181
-0.0441908
-0.0414319
-0.0386442
-0.0346619
-0.0285082
-0.0189631
-0.00658081
-0.00717212
-0.02097
-0.033179
-0.0429957
-0.0488552
-0.0498426
-0.0470821
-0.0389578
-0.0236285
-0.00532169
0.0122354
0.0301286
0.0494904
0.067381
0.0788432
0.0870676
0.0983464
0.107989
0.108026
0.0987834
0.0874363
0.0792961
0.0734614
0.0667135
0.0562475
0.0411518
0.0243138
0.0157599
0.023489
0.0446881
0.0659127
0.0722242
0.0620712
0.0431381
0.0271531
0.0167226
0.00726834
-0.00806987
-0.0320101
-0.0595513
-0.0839679
-0.0976234
-0.0992118
-0.0894626
-0.0736558
-0.055563
-0.0394093
-0.0266032
-0.0182454
-0.0140752
-0.0140752
-0.0182455
-0.0266034
-0.0394095
-0.0555632
-0.0736561
-0.0894629
-0.0992122
-0.097624
-0.0839685
-0.059552
-0.0320107
-0.00807042
0.00726773
0.0167218
0.0271523
0.0431376
0.0620713
0.072225
0.0659135
0.0446879
0.0234876
0.0157579
0.0243123
0.0411513
0.0562477
0.066714
0.0734621
0.0792971
0.0874382
0.0987868
0.108031
0.107994
0.0983492
0.0870687
0.0788445
0.067383
0.0494919
0.030129
0.012235
-0.00532303
-0.0236316
-0.0389627
-0.0470872
-0.0498469
-0.0488589
-0.0429988
-0.0331812
-0.0209712
-0.00717246
-0.0070286
-0.0202569
-0.0323899
-0.0434179
-0.049789
-0.0483667
-0.040674
-0.0269916
-0.00638354
0.0170143
0.0376655
0.0549417
0.0724849
0.0895759
0.0991042
0.101534
0.104367
0.107089
0.102215
0.0874363
0.0704668
0.0589485
0.0529653
0.0491097
0.043954
0.0347142
0.0217013
0.0132179
0.0189298
0.0407755
0.0671356
0.0813491
0.0771047
0.0596626
0.0419421
0.0294823
0.0201327
0.00618632
-0.0165395
-0.0454108
-0.0734925
-0.0926935
-0.0996772
-0.0943511
-0.0811539
-0.0642425
-0.0481552
-0.0349625
-0.0261146
-0.0216516
-0.0216516
-0.0261148
-0.0349627
-0.0481554
-0.0642428
-0.0811543
-0.0943515
-0.0996776
-0.092694
-0.0734929
-0.045411
-0.0165396
0.00618641
0.0201328
0.0294824
0.0419424
0.0596634
0.0771063
0.081351
0.0671371
0.0407757
0.0189287
0.0132163
0.0217
0.0347135
0.0439533
0.0491086
0.0529639
0.0589472
0.0704666
0.0874382
0.102219
0.107094
0.104371
0.101537
0.0991075
0.0895792
0.0724871
0.0549432
0.0376671
0.0170149
-0.00638543
-0.0269959
-0.0406795
-0.0483726
-0.0497945
-0.043422
-0.0323924
-0.0202583
-0.00702904
-0.00584919
-0.0160042
-0.0245992
-0.0326712
-0.0360655
-0.0315406
-0.021898
-0.00810044
0.0115556
0.0347181
0.0560649
0.0730072
0.0892343
0.105971
0.114772
0.112494
0.107684
0.104611
0.0967086
0.0792961
0.0589485
0.0444127
0.0375341
0.0347638
0.0321256
0.0262103
0.0152661
0.00534569
0.00707296
0.0267502
0.0560069
0.0778494
0.0813167
0.0682964
0.0515262
0.0391285
0.0317088
0.0214363
0.00273514
-0.0242583
-0.0531471
-0.0755553
-0.0864452
-0.0845593
-0.0734365
-0.0572912
-0.0409669
-0.0271053
-0.0175653
-0.0126938
-0.0126939
-0.0175653
-0.0271054
-0.0409669
-0.0572912
-0.0734364
-0.0845592
-0.0864452
-0.0755551
-0.0531469
-0.024258
0.0027357
0.021437
0.0317095
0.0391291
0.0515269
0.0682975
0.0813184
0.0778511
0.0560077
0.0267496
0.00707119
0.00534374
0.0152646
0.0262091
0.0321242
0.0347617
0.0375315
0.0444103
0.0589472
0.0792971
0.0967119
0.104615
0.107688
0.112498
0.114778
0.105976
0.089237
0.0730088
0.0560664
0.0347187
0.011554
-0.00810379
-0.021902
-0.0315454
-0.0360707
-0.0326752
-0.0246016
-0.0160057
-0.00584977
-0.00305866
-0.00679762
-0.00832941
-0.0101137
-0.00864746
-0.00172734
0.00751197
0.0185195
0.0330255
0.0512204
0.0702718
0.0849879
0.0974323
0.111754
0.119793
0.114833
0.104728
0.0975351
0.0894232
0.0734614
0.0529653
0.0375341
0.0307606
0.0288504
0.0278125
0.0238803
0.0138719
0.00155529
-0.00268206
0.0111665
0.0390968
0.0651614
0.0746733
0.0656941
0.0494506
0.0364416
0.0300002
0.0231566
0.00916431
-0.0144255
-0.0422185
-0.0661583
-0.0795973
-0.0802788
-0.070539
-0.0546601
-0.037598
-0.0226633
-0.0120968
-0.00664577
-0.00664575
-0.0120967
-0.0226632
-0.0375979
-0.0546599
-0.0705387
-0.0802786
-0.079597
-0.066158
-0.0422182
-0.0144251
0.00916487
0.0231571
0.0300005
0.0364418
0.0494508
0.0656946
0.0746742
0.0651621
0.0390965
0.0111648
-0.0026844
0.00155328
0.0138707
0.0238795
0.0278113
0.0288485
0.0307581
0.0375315
0.0529639
0.0734621
0.0894256
0.0975382
0.104732
0.114838
0.119799
0.111759
0.097435
0.0849896
0.0702728
0.0512202
0.0330239
0.0185174
0.00750999
-0.00172978
-0.00865059
-0.0101162
-0.00833099
-0.00679899
-0.00305933
0.00127394
0.00659121
0.0137723
0.0192072
0.0259935
0.0351797
0.0439648
0.0523686
0.0608363
0.0716895
0.0852782
0.0941767
0.098992
0.107214
0.11266
0.10613
0.0928948
0.083656
0.0780523
0.0667135
0.0491097
0.0347638
0.0288504
0.0284116
0.0293325
0.0276461
0.0195711
0.00637351
-0.00295954
0.00425014
0.0285337
0.0562166
0.0702112
0.064237
0.0473668
0.0316426
0.0233029
0.0172262
0.00577699
-0.0154864
-0.042954
-0.0688654
-0.0855894
-0.0896085
-0.0821343
-0.067249
-0.050007
-0.0343495
-0.0229454
-0.0169951
-0.0169951
-0.0229454
-0.0343495
-0.050007
-0.067249
-0.0821343
-0.0896085
-0.0855895
-0.0688655
-0.0429541
-0.0154864
0.00577698
0.0172262
0.0233026
0.0316422
0.0473666
0.0642373
0.0702119
0.0562169
0.0285329
0.00424832
-0.0029616
0.00637215
0.0195706
0.027646
0.029332
0.0284103
0.0288485
0.0347618
0.0491086
0.066714
0.0780537
0.0836575
0.0928971
0.106134
0.112665
0.107218
0.0989941
0.0941785
0.0852793
0.0716893
0.0608355
0.052368
0.0439648
0.0351795
0.0259927
0.0192068
0.0137723
0.00659058
0.00127339
0.00581123
0.0199736
0.0349768
0.047319
0.059889
0.0720326
0.0819671
0.0904122
0.0948415
0.0983593
0.104639
0.105168
0.0993212
0.0973555
0.0969557
0.0885443
0.0734467
0.0631369
0.060981
0.0562475
0.043954
0.0321256
0.0278125
0.0293325
0.0324975
0.0334584
0.0282757
0.016043
0.00353917
0.00491739
0.0248225
0.0531365
0.0713569
0.0690399
0.0523867
0.033756
0.0226398
0.0158313
0.00593388
-0.0135719
-0.0408487
-0.0688633
-0.0893372
-0.0973689
-0.093137
-0.0800958
-0.0634997
-0.0476431
-0.0357885
-0.0294931
-0.0294931
-0.0357885
-0.0476432
-0.0634998
-0.080096
-0.0931372
-0.0973692
-0.0893375
-0.0688636
-0.040849
-0.0135722
0.00593358
0.0158309
0.0226392
0.0337554
0.0523866
0.0690403
0.0713576
0.0531367
0.0248218
0.00491593
0.00353784
0.0160426
0.0282761
0.033459
0.0324977
0.029332
0.0278113
0.0321242
0.0439534
0.0562477
0.060981
0.0631363
0.0734468
0.0885462
0.0969587
0.0973577
0.0993227
0.10517
0.104642
0.0983602
0.0948425
0.0904136
0.0819686
0.0720342
0.05989
0.0473199
0.0349779
0.0199738
0.00581091
0.00917675
0.0295313
0.0499869
0.0682202
0.0864054
0.10201
0.114992
0.126212
0.129363
0.127767
0.127568
0.120015
0.103631
0.0898318
0.0812147
0.0699919
0.0526433
0.0400637
0.0398612
0.0411518
0.0347142
0.0262103
0.0238803
0.0276461
0.0334584
0.0371651
0.0352893
0.0252339
0.011261
0.00794433
0.023408
0.0520338
0.0748244
0.077923
0.0635649
0.0437
0.0304702
0.0229242
0.0146989
-0.00276679
-0.0290676
-0.0586962
-0.0825335
-0.0948175
-0.0942034
-0.0836533
-0.0682121
-0.0526196
-0.0405752
-0.0340784
-0.0340784
-0.0405753
-0.0526197
-0.0682122
-0.0836534
-0.0942035
-0.0948176
-0.0825337
-0.0586964
-0.0290677
-0.00276685
0.0146989
0.0229241
0.0304701
0.0436999
0.0635652
0.0779238
0.0748253
0.0520341
0.0234073
0.0079432
0.0112603
0.0252343
0.0352904
0.0371661
0.033459
0.027646
0.0238795
0.0262092
0.0347135
0.0411513
0.0398595
0.0400609
0.0526413
0.0699916
0.0812153
0.0898322
0.103632
0.120019
0.127572
0.12777
0.129366
0.126216
0.114995
0.102012
0.0864073
0.0682216
0.0499882
0.0295318
0.00917656
0.0113721
0.0351715
0.0584483
0.0808227
0.103122
0.121182
0.137054
0.151302
0.154802
0.150952
0.146889
0.134999
0.113048
0.090626
0.0749092
0.0610551
0.0406046
0.02328
0.0208502
0.0243138
0.0217013
0.0152661
0.0138719
0.0195711
0.0282757
0.0352893
0.0377933
0.0315832
0.0184654
0.0120888
0.0232082
0.051193
0.0776111
0.086244
0.0748239
0.0543393
0.0388286
0.0300733
0.0231403
0.00799976
-0.0164682
-0.0466002
-0.0727507
-0.088601
-0.0911569
-0.0829379
-0.0685145
-0.0531409
-0.0408244
-0.0340981
-0.0340981
-0.0408244
-0.053141
-0.0685146
-0.082938
-0.091157
-0.0886011
-0.0727508
-0.0466003
-0.0164682
0.00799974
0.0231403
0.0300733
0.0388286
0.0543395
0.0748247
0.0862453
0.0776123
0.0511936
0.0232078
0.0120883
0.0184653
0.0315841
0.0377946
0.0352904
0.0282761
0.0195706
0.0138707
0.0152646
0.0217
0.0243122
0.0208471
0.0232758
0.0406017
0.0610539
0.0749085
0.0906258
0.11305
0.135004
0.146894
0.150956
0.154806
0.151306
0.137057
0.121185
0.103124
0.0808239
0.0584493
0.0351719
0.011372
0.0131932
0.0390736
0.0633864
0.088044
0.111766
0.129298
0.145088
0.159487
0.162724
0.158515
0.153615
0.142768
0.122573
0.0978921
0.0794092
0.0657037
0.0440718
0.0219935
0.0142853
0.0157599
0.0132179
0.00534569
0.00155529
0.00637351
0.016043
0.0252339
0.0315832
0.0295634
0.0188519
0.0109312
0.018435
0.0456325
0.0755456
0.0907595
0.0839794
0.064797
0.0480718
0.0385675
0.0330923
0.0206923
-0.001151
-0.0308943
-0.0585688
-0.0776003
-0.0832273
-0.0775225
-0.0643375
-0.0494207
-0.0369743
-0.030099
-0.030099
-0.0369743
-0.0494207
-0.0643375
-0.0775224
-0.0832272
-0.0776001