/*--------------------------------*- C++ -*----------------------------------*\
  =========                 |
  \\      /  F ield         | OpenFOAM: The Open Source CFD Toolbox
   \\    /   O peration     | Website:  https://openfoam.org
    \\  /    A nd           | Version:  10
     \\/     M anipulation  |
\*---------------------------------------------------------------------------*/
FoamFile
{
    format      ascii;
    class       volScalarField;
    location    "63";
    object      h;
}
// * * * * * * * * * * * * * * * * * * * * * * * * * * * * * * * * * * * * * //

dimensions      [0 1 0 0 0 0 0];

internalField   nonuniform List<scalar> 
10000
(
-0.000715074
-0.00179181
-0.00208448
-0.00149696
4.25449e-05
0.00247625
0.00528337
0.00776183
0.00965759
0.0109978
0.0116008
0.0112195
0.00998706
0.00821125
0.00589169
0.00297883
-0.000144234
-0.00276879
-0.00442419
-0.00509943
-0.00504667
-0.00453302
-0.00376508
-0.0029136
-0.00208194
-0.00132234
-0.000641936
-5.08277e-05
0.000447508
0.000816162
0.000928097
0.000577734
-0.000383841
-0.0017895
-0.00304217
-0.00357495
-0.00333082
-0.00269827
-0.00217122
-0.00188037
-0.0014705
-0.000603393
0.00059882
0.00163279
0.00198106
0.0015546
0.000759586
0.000102517
-0.000193769
-0.000239932
-0.000239942
-0.00019379
0.000102504
0.000759594
0.00155463
0.00198108
0.00163279
0.000598797
-0.000603423
-0.00147052
-0.00188038
-0.00217125
-0.00269834
-0.00333094
-0.00357507
-0.00304225
-0.00178947
-0.000383678
0.000578008
0.000928421
0.000816429
0.000447607
-5.09412e-05
-0.000642182
-0.00132255
-0.00208194
-0.00291341
-0.00376492
-0.00453319
-0.00504739
-0.00510064
-0.00442555
-0.0027698
-0.000144509
0.00297938
0.00589284
0.00821261
0.00998838
0.0112208
0.011602
0.010999
0.00965862
0.00776247
0.00528329
0.00247523
4.07117e-05
-0.00149922
-0.00208663
-0.00179336
-0.000715633
-0.00179181
-0.00439802
-0.00486372
-0.00297279
0.00146223
0.00831588
0.0161833
0.0231553
0.0285688
0.0324825
0.0342754
0.0331319
0.0294051
0.0240483
0.0171751
0.00871646
-0.000248034
-0.00779241
-0.0126967
-0.0149896
-0.0153235
-0.0142863
-0.0122922
-0.00975928
-0.00705741
-0.00449593
-0.00224217
-0.000381864
0.0011117
0.00220671
0.00258246
0.00163237
-0.00111476
-0.00519319
-0.00885259
-0.0104065
-0.00965868
-0.00774382
-0.00612094
-0.00518482
-0.00389971
-0.00126965
0.00235096
0.00547399
0.00656085
0.00533122
0.00297103
0.000980021
4.14055e-05
-0.000138203
-0.000138214
4.1397e-05
0.000980063
0.00297114
0.00533136
0.00656093
0.00547395
0.00235081
-0.00126982
-0.00389981
-0.00518483
-0.00612095
-0.00774394
-0.00965893
-0.0104068
-0.0088527
-0.00519301
-0.0011143
0.00163302
0.00258315
0.00220726
0.00111192
-0.000382044
-0.00224261
-0.00449631
-0.00705747
-0.00975907
-0.0122922
-0.0142872
-0.0153256
-0.0149929
-0.0127003
-0.00779523
-0.000249016
0.00871766
0.017178
0.0240521
0.0294091
0.0331359
0.0342792
0.032486
0.0285717
0.023157
0.016183
0.00831309
0.00145727
-0.00297889
-0.00486958
-0.00440227
-0.00179335
-0.00208448
-0.00486372
-0.00467229
-0.00132414
0.00544378
0.0155701
0.0271536
0.0375428
0.0458662
0.0521292
0.0551061
0.0532793
0.0471328
0.0383187
0.027309
0.0141745
0.000503001
-0.0110331
-0.0188845
-0.0232354
-0.024908
-0.0243722
-0.0218373
-0.0177797
-0.0129463
-0.0081885
-0.00410436
-0.000950797
0.00140234
0.00307654
0.00367754
0.00223352
-0.00207242
-0.00853995
-0.0143866
-0.0168881
-0.0156782
-0.012557
-0.00985281
-0.00819272
-0.00593166
-0.00148971
0.00454645
0.0097493
0.0116125
0.00966414
0.00581021
0.00249007
0.000854725
0.00048668
0.000486678
0.000854759
0.00249022
0.00581051
0.00966448
0.0116127
0.0097492
0.00454609
-0.00149015
-0.00593195
-0.00819278
-0.00985277
-0.0125571
-0.0156784
-0.0168882
-0.0143865
-0.0085395
-0.00207174
0.00223422
0.00367812
0.00307696
0.0014026
-0.000950697
-0.00410442
-0.00818867
-0.0129466
-0.0177802
-0.0218385
-0.0243744
-0.0249114
-0.0232399
-0.0188892
-0.0110369
0.000501267
0.0141755
0.0273127
0.0383243
0.0471395
0.0532864
0.0551129
0.0521349
0.0458704
0.0375448
0.0271528
0.015566
0.00543687
-0.0013325
-0.00468032
-0.00486958
-0.00208663
-0.00149696
-0.00297279
-0.00132414
0.00347546
0.0117725
0.0237441
0.0374334
0.0499401
0.0603382
0.0684653
0.0724201
0.070002
0.0617912
0.0501164
0.0359402
0.0195242
0.00269463
-0.011604
-0.0218195
-0.0283114
-0.0318602
-0.0325215
-0.0300514
-0.024855
-0.0180848
-0.0112435
-0.00547399
-0.00124214
0.00170212
0.00367988
0.00428724
0.00224971
-0.00353976
-0.0121653
-0.0199908
-0.0234344
-0.0219692
-0.0179408
-0.0143592
-0.0119899
-0.00867882
-0.00241152
0.00594425
0.0130761
0.015626
0.012994
0.00776487
0.00323205
0.000965911
0.000430169
0.000430111
0.000965823
0.00323212
0.00776522
0.0129945
0.0156264
0.0130761
0.00594376
-0.00241225
-0.00867943
-0.0119902
-0.0143592
-0.0179408
-0.0219693
-0.0234344
-0.0199904
-0.0121646
-0.00353896
0.00225031
0.00428757
0.00368014
0.00170255
-0.00124151
-0.0054734
-0.0112433
-0.0180854
-0.0248566
-0.0300541
-0.0325252
-0.0318645
-0.028316
-0.021824
-0.0116078
0.0026926
0.0195248
0.0359438
0.0501228
0.0617998
0.0700116
0.0724293
0.0684727
0.0603429
0.0499418
0.0374318
0.0237392
0.011765
0.00346663
-0.0013325
-0.00297889
-0.0014992
4.25449e-05
0.00146223
0.00544378
0.0117725
0.0209216
0.0334432
0.0476639
0.0608034
0.0719632
0.0807965
0.0849419
0.0818349
0.0721933
0.0588005
0.0429225
0.0248181
0.00624409
-0.00986433
-0.0219736
-0.0304499
-0.0359014
-0.037974
-0.0360229
-0.0303451
-0.0223621
-0.0140362
-0.0069259
-0.0016922
0.0019105
0.0042368
0.00479603
0.00207057
-0.00518332
-0.0157573
-0.025326
-0.0296722
-0.0281465
-0.0235087
-0.0192277
-0.0161036
-0.011612
-0.00350289
0.00701532
0.0158361
0.0189233
0.015649
0.00922826
0.00368584
0.000926844
0.000282829
0.000282668
0.00092651
0.00368567
0.00922852
0.0156497
0.018924
0.0158363
0.00701484
-0.00350381
-0.0116129
-0.0161042
-0.0192278
-0.0235086
-0.0281464
-0.029672
-0.0253256
-0.0157565
-0.00518244
0.00207121
0.0047964
0.00423719
0.00191119
-0.00169121
-0.00692503
-0.0140361
-0.0223632
-0.0303477
-0.0360269
-0.0379787
-0.0359062
-0.0304542
-0.0219774
-0.00986731
0.00624247
0.0248187
0.0429259
0.0588069
0.0722024
0.0818456
0.0849524
0.0808046
0.0719679
0.0608046
0.0476618
0.0334382
0.0209147
0.011765
0.00543687
0.00145728
4.07242e-05
0.00247625
0.00831588
0.0155701
0.0237441
0.0334432
0.0456002
0.0589797
0.0711452
0.0813078
0.0891031
0.0922105
0.0882277
0.0780345
0.0644238
0.0485057
0.0301955
0.0109195
-0.00648265
-0.0203045
-0.030654
-0.0379143
-0.0415029
-0.0405641
-0.0352586
-0.0270281
-0.0179536
-0.00977836
-0.00334111
0.00139095
0.00451786
0.00528374
0.00194852
-0.00669148
-0.0190016
-0.0300693
-0.0352162
-0.0336881
-0.0285369
-0.0235176
-0.0194268
-0.0135515
-0.0035942
0.0088994
0.01919
0.0227553
0.0189944
0.0116315
0.00526055
0.00206355
0.00129925
0.00129904
0.00206311
0.00526028
0.0116317
0.0189951
0.022756
0.0191902
0.00889887
-0.00359527
-0.0135525
-0.0194273
-0.0235176
-0.0285367
-0.0336879
-0.0352161
-0.0300689
-0.0190008
-0.0066905
0.00194942
0.00528447
0.00451856
0.00139178
-0.00334027
-0.00977794
-0.0179541
-0.0270299
-0.0352619
-0.0405686
-0.0415081
-0.0379194
-0.0306584
-0.0203079
-0.00648484
0.0109188
0.0301967
0.0485092
0.0644297
0.0780428
0.0882377
0.0922206
0.0891112
0.0813127
0.0711466
0.0589782
0.0455964
0.0334382
0.0237392
0.015566
0.0083131
0.00247525
0.00528337
0.0161833
0.0271536
0.0374334
0.0476639
0.0589797
0.0705568
0.0804348
0.0880661
0.0933421
0.094519
0.0897962
0.080104
0.0677286
0.0532093
0.0359283
0.0168723
-0.0012537
-0.0164552
-0.0284419
-0.0373899
-0.0426481
-0.043258
-0.0391662
-0.0316149
-0.0225525
-0.0137388
-0.00615834
-0.000111678
0.00405548
0.0051849
0.00130941
-0.00862629
-0.022489
-0.0348849
-0.0408094
-0.0393773
-0.0337894
-0.027946
-0.0226601
-0.015239
-0.00350422
0.0107175
0.0222648
0.026321
0.0223178
0.014305
0.00725518
0.00359584
0.00263414
0.00263395
0.00359544
0.00725497
0.0143053
0.0223185
0.0263217
0.0222649
0.0107167
-0.0035055
-0.0152401
-0.0226606
-0.0279458
-0.0337888
-0.039377
-0.0408093
-0.0348847
-0.0224883
-0.00862515
0.00131069
0.00518604
0.00405639
-0.000111025
-0.00615812
-0.0137393
-0.0225539
-0.0316174
-0.0391697
-0.0432624
-0.0426531
-0.037395
-0.0284463
-0.0164585
-0.00125523
0.0168728
0.0359308
0.0532133
0.0677339
0.0801106
0.0898038
0.094527
0.0933491
0.0880711
0.0804373
0.0705569
0.0589782
0.0476618
0.0374318
0.0271528
0.016183
0.0052833
0.00776183
0.0231553
0.0375428
0.0499401
0.0608034
0.0711452
0.0804348
0.0873125
0.09165
0.0938202
0.0929462
0.087952
0.0795727
0.0692398
0.0568653
0.041463
0.0236299
0.00578944
-0.00994052
-0.0229658
-0.0333135
-0.0402956
-0.0428109
-0.0404933
-0.0342925
-0.0259599
-0.0172063
-0.00908619
-0.00218555
0.00271231
0.00404284
-0.000365201
-0.0113942
-0.0264849
-0.0399808
-0.0467332
-0.045684
-0.0399593
-0.0333899
-0.0267913
-0.0177059
-0.00428134
0.0113861
0.0239128
0.0283992
0.0243514
0.0159904
0.00847717
0.00441921
0.00324319
0.00324298
0.00441875
0.00847691
0.0159907
0.0243522
0.0284
0.0239129
0.0113852
-0.00428286
-0.0177073
-0.0267919
-0.0333896
-0.0399586
-0.0456835
-0.046733
-0.0399805
-0.0264841
-0.0113929
-0.000363647
0.00404417
0.00271315
-0.00218533
-0.0090867
-0.0172076
-0.0259621
-0.0342955
-0.0404968
-0.0428149
-0.0402999
-0.0333179
-0.0229696
-0.0099431
0.0057887
0.0236313
0.0414663
0.0568697
0.0692444
0.0795772
0.0879568
0.0929513
0.0938254
0.0916547
0.0873162
0.0804373
0.0711467
0.0608046
0.0499418
0.0375449
0.023157
0.00776248
0.00965759
0.0285688
0.0458662
0.0603382
0.0719632
0.0813078
0.0880661
0.09165
0.0925354
0.0916567
0.0889776
0.0839905
0.0770043
0.0685672
0.0582841
0.0452038
0.0296065
0.0133281
-0.001776
-0.0150312
-0.0263464
-0.0349238
-0.0394104
-0.0390578
-0.0345251
-0.0274039
-0.0193428
-0.0113873
-0.00429576
0.000825396
0.00211207
-0.00271613
-0.0143729
-0.0300701
-0.0442335
-0.0518233
-0.0515571
-0.0461661
-0.0390969
-0.0311054
-0.0201899
-0.00508526
0.0117874
0.0249952
0.0297881
0.0258366
0.0174195
0.00971003
0.00539885
0.00404967
0.00404936
0.00539816
0.00970949
0.0174196
0.0258373
0.029789
0.0249955
0.0117867
-0.00508684
-0.0201915
-0.0311063
-0.0390968
-0.0461653
-0.0515563
-0.0518228
-0.044233
-0.0300692
-0.0143715
-0.00271453
0.00211329
0.000825912
-0.00429604
-0.0113884
-0.0193447
-0.0274066
-0.0345285
-0.0390616
-0.0394142
-0.0349273
-0.0263494
-0.0150335
-0.00177719
0.0133284
0.0296083
0.0452071
0.058288
0.0685707
0.077007
0.0839927
0.0889799
0.0916597
0.0925393
0.0916547
0.0880711
0.0813127
0.071968
0.0603429
0.0458704
0.0285717
0.00965862
0.0109978
0.0324825
0.0521292
0.0684653
0.0807965
0.0891031
0.0933421
0.0938202
0.0916567
0.0882251
0.0840962
0.0791074
0.0730805
0.0659119
0.0573277
0.0467491
0.0341168
0.0203548
0.0067237
-0.00616128
-0.0180669
-0.0280357
-0.0344339
-0.0361256
-0.0334695
-0.0278761
-0.0208835
-0.0134889
-0.00659258
-0.00156771
-0.00046996
-0.0055432
-0.0172986
-0.0329113
-0.0472207
-0.0555353
-0.0563057
-0.0515697
-0.044116
-0.0346108
-0.0217081
-0.00493031
0.0129728
0.0267001
0.0318368
0.0282312
0.0200503
0.0123089
0.00774488
0.00615839
0.00615804
0.00774404
0.0123081
0.0200501
0.0282317
0.0318377
0.0267006
0.0129724
-0.00493173
-0.0217098
-0.0346119
-0.0441161
-0.051569
-0.0563047
-0.0555343
-0.0472198
-0.0329101
-0.0172972
-0.00554182
-0.000469107
-0.00156767
-0.00659337
-0.0134905
-0.0208857
-0.0278791
-0.0334732
-0.0361296
-0.0344376
-0.0280385
-0.0180686
-0.00616179
0.00672413
0.0203559
0.0341185
0.0467513
0.05733
0.0659139
0.0730817
0.079108
0.0840967
0.0882263
0.0916597
0.0938254
0.0933491
0.0891112
0.0808047
0.0684727
0.0521349
0.032486
0.010999
0.0116008
0.0342754
0.0551061
0.0724201
0.0849419
0.0922105
0.094519
0.0929462
0.0889776
0.0840962
0.0792054
0.0743825
0.0690943
0.0628787
0.055823
0.0478018
0.038345
0.0273549
0.0154631
0.00327342
-0.00881856
-0.0198029
-0.0279262
-0.0317543
-0.0312902
-0.0276288
-0.0220739
-0.0155564
-0.00916737
-0.00457592
-0.00397082
-0.00941113
-0.0211235
-0.0363423
-0.0505079
-0.0594142
-0.0612349
-0.0571696
-0.049265
-0.0381699
-0.0233333
-0.00509799
0.0135998
0.0278071
0.0335464
0.0307132
0.0230867
0.0153528
0.0103476
0.00832273
0.00832242
0.0103469
0.015352
0.0230864
0.0307136
0.0335471
0.0278075
0.0135994
-0.00509927
-0.023335
-0.038171
-0.0492651
-0.0571687
-0.0612336
-0.0594129
-0.0505068
-0.0363412
-0.0211223
-0.00941014
-0.00397045
-0.00457643
-0.00916872
-0.0155584
-0.0220765
-0.0276319
-0.0312938
-0.031758
-0.0279294
-0.0198049
-0.00881909
0.00327427
0.0154648
0.0273566
0.0383464
0.0478027
0.0558236
0.0628792
0.0690946
0.0743825
0.0792053
0.0840967
0.0889799
0.0929513
0.094527
0.0922206
0.0849524
0.0724293
0.0551129
0.0342792
0.011602
0.0112195
0.0331319
0.0532793
0.070002
0.0818349
0.0882277
0.0897962
0.087952
0.0839905
0.0791074
0.0743825
0.0702027
0.0659005
0.0608332
0.0554027
0.0498064
0.0431749
0.0345962
0.0243345
0.013138
0.00151321
-0.0097403
-0.0190602
-0.0248859
-0.0268195
-0.025479
-0.0217894
-0.0165876
-0.0111935
-0.00759273
-0.00805218
-0.0143089
-0.0262131
-0.0410914
-0.0550584
-0.0644504
-0.0671881
-0.063619
-0.0551043
-0.0424126
-0.025884
-0.00661599
0.012481
0.0270341
0.0335922
0.0319595
0.0252559
0.0176688
0.012151
0.00956425
0.009564
0.0121504
0.0176681
0.0252556
0.0319597
0.0335926
0.0270343
0.0124805
-0.00661733
-0.0258856
-0.0424137
-0.0551042
-0.0636178
-0.0671864
-0.0644489
-0.0550572
-0.0410905
-0.0262123
-0.0143083
-0.00805228
-0.00759373
-0.0111954
-0.0165902
-0.0217924
-0.0254822
-0.0268226
-0.0248887
-0.0190623
-0.00974125
0.0015136
0.0131396
0.0243367
0.0345982
0.0431761
0.0498066
0.0554022
0.0608326
0.0659001
0.0702025
0.0743825
0.079108
0.0839927
0.0879568
0.0898038
0.0882377
0.0818456
0.0700116
0.0532864
0.0331359
0.0112208
0.00998706
0.0294051
0.0471328
0.0617912
0.0721933
0.0780345
0.080104
0.0795727
0.0770043
0.0730805
0.0690943
0.0659005
0.0628764
0.0592323
0.0554808
0.0519688
0.0475559
0.0408826
0.0321547
0.0223616
0.0120144
0.00145547
-0.00821532
-0.0154853
-0.0195758
-0.0205658
-0.0189382
-0.0154204
-0.0115344
-0.00950762
-0.011568
-0.0190033
-0.0312519
-0.0458152
-0.0595543
-0.0693689
-0.072921
-0.0696862
-0.0603946
-0.0460747
-0.0280659
-0.0081908
0.0108289
0.0254163
0.0327931
0.0326441
0.0272586
0.0201665
0.0143527
0.0112854
0.0112852
0.0143522
0.0201659
0.0272582
0.0326441
0.0327933
0.0254163
0.0108283
-0.00819218
-0.0280675
-0.0460758
-0.0603944
-0.0696848
-0.072919
-0.0693671
-0.0595531
-0.0458147
-0.0312517
-0.0190033
-0.0115685
-0.00950897
-0.0115367
-0.0154234
-0.0189414
-0.0205689
-0.0195783
-0.0154871
-0.00821611
0.00145565
0.0120154
0.0223632
0.0321566
0.0408844
0.0475571
0.051969
0.0554801
0.0592311
0.0628754
0.0659001
0.0690946
0.0730817
0.077007
0.0795772
0.0801106
0.0780428
0.0722024
0.0617998
0.0471395
0.0294091
0.00998838
0.00821125
0.0240483
0.0383187
0.0501164
0.0588005
0.0644238
0.0677286
0.0692398
0.0685672
0.0659119
0.0628787
0.0608332
0.0592323
0.0571206
0.054978
0.0532241
0.0506121
0.0456068
0.0384675
0.0303753
0.0217736
0.012499
0.00312396
-0.00497467
-0.0107124
-0.0136986
-0.0140387
-0.0123864
-0.0103942
-0.0103657
-0.0143091
-0.0229645
-0.035422
-0.0495379
-0.0630204
-0.0732994
-0.0776836
-0.0746934
-0.0644565
-0.0484071
-0.0290103
-0.00881035
0.00978849
0.0241903
0.0324195
0.0340205
0.0303093
0.0240234
0.0181075
0.0146343
0.0146342
0.0181071
0.0240229
0.0303088
0.0340202
0.0324194
0.0241902
0.00978797
-0.00881141
-0.0290116
-0.048408
-0.0644563
-0.074692
-0.0776815
-0.0732974
-0.0630192
-0.0495376
-0.0354223
-0.022965
-0.01431
-0.0103673
-0.0103967
-0.0123894
-0.0140419
-0.0137014
-0.0107143
-0.00497553
0.00312413
0.0124999
0.0217749
0.0303767
0.0384688
0.0456081
0.0506133
0.0532247
0.0549777
0.0571196
0.0592312
0.0608326
0.0628792
0.0659139
0.0685707
0.0692444
0.0677339
0.0644297
0.0588069
0.0501228
0.0383243
0.0240521
0.0082126
0.00589169
0.0171751
0.027309
0.0359402
0.0429225
0.0485057
0.0532093
0.0568653
0.0582841
0.0573277
0.055823
0.0554027
0.0554808
0.054978
0.0543862
0.054253
0.0533438
0.050025
0.0445136
0.038056
0.0310597
0.02302
0.0140947
0.00550082
-0.00147781
-0.00612097
-0.00828702
-0.00861674
-0.00880927
-0.0110584
-0.0169891
-0.026776
-0.0393057
-0.0529771
-0.0663684
-0.0773012
-0.0825907
-0.0797653
-0.0684512
-0.050646
-0.0299902
-0.00964723
0.00845882
0.022823
0.0322415
0.0359549
0.0341243
0.0286262
0.0224407
0.0184086
0.0184085
0.0224405
0.0286258
0.0341236
0.0359541
0.0322408
0.0228226
0.00845853
-0.00964768
-0.0299908
-0.0506465
-0.068451
-0.0797641
-0.0825888
-0.0772994
-0.0663673
-0.052977
-0.0393064
-0.0267771
-0.0169905
-0.0110602
-0.00881167
-0.00861954
-0.00828978
-0.00612324
-0.00147926
0.00550033
0.0140951
0.0230212
0.0310611
0.0380573
0.0445147
0.0500261
0.0533451
0.054254
0.0543866
0.0549777
0.0554802
0.0554022
0.0558236
0.0573301
0.058288
0.0568697
0.0532133
0.0485092
0.0429259
0.0359438
0.0273127
0.017178
0.00589282
0.00297883
0.00871646
0.0141745
0.0195242
0.0248181
0.0301955
0.0359283
0.041463
0.0452038
0.0467491
0.0478018
0.0498064
0.0519688
0.0532241
0.054253
0.055828
0.0567679
0.0553032
0.0514598
0.046455
0.0407634
0.0337615
0.0253187
0.0164536
0.0085345
0.00248483
-0.00141968
-0.00385664
-0.00649676
-0.0112743
-0.0193322
-0.0303296
-0.0430944
-0.0566567
-0.0703597
-0.0822183
-0.0884758
-0.0857686
-0.0734049
-0.0540486
-0.0324154
-0.0120761
0.00566986
0.0203901
0.0314672
0.0376017
0.0376634
0.0326927
0.0258722
0.021028
0.021028
0.025872
0.0326921
0.0376624
0.0376004
0.0314661
0.0203895
0.00566974
-0.012076
-0.0324154
-0.0540486
-0.0734046
-0.0857677
-0.0884745
-0.0822168
-0.0703588
-0.0566568
-0.0430954
-0.0303311
-0.0193339
-0.0112763
-0.00649912
-0.00385916
-0.00142201
0.00248303
0.0085334
0.0164533
0.0253192
0.0337626
0.0407649
0.0464566
0.0514614
0.0553047
0.0567695
0.0558294
0.054254
0.0532247
0.0519691
0.0498066
0.0478027
0.0467513
0.0452071
0.0414663
0.0359308
0.0301967
0.0248187
0.0195248
0.0141755
0.00871765
0.00297937
-0.000144234
-0.000248034
0.000503001
0.00269463
0.00624409
0.0109195
0.0168723
0.0236299
0.0296065
0.0341168
0.038345
0.0431749
0.0475559
0.0506121
0.0533438
0.0567679
0.0597499
0.060371
0.0584052
0.0550031
0.0507673
0.0450646
0.0374992
0.0288188
0.0203963
0.0132944
0.00785035
0.00330571
-0.00193613
-0.00944417
-0.0198156
-0.0322418
-0.0455668
-0.0594303
-0.0737789
-0.0866816
-0.0938616
-0.0912642
-0.0780558
-0.0575588
-0.0353513
-0.01519
0.00231259
0.0176943
0.0307247
0.0394169
0.0413396
0.0367589
0.0291506
0.0234068
0.0234068
0.0291503
0.0367582
0.0413384
0.0394154
0.0307233
0.0176936
0.00231254
-0.0151896
-0.0353508
-0.0575585
-0.0780555
-0.0912636
-0.0938605
-0.0866805
-0.0737783
-0.0594305
-0.045568
-0.0322435
-0.0198175
-0.00944635
-0.00193852
0.00330328
0.00784824
0.0132929
0.0203956
0.0288188
0.0374998
0.0450658
0.0507691
0.0550053
0.0584075
0.0603732
0.0597518
0.0567695
0.0533451
0.0506133
0.0475571
0.0431761
0.0383464
0.0341185
0.0296083
0.0236313
0.0168728
0.0109188
0.00624246
0.00269259
0.000501257
-0.000249025
-0.000144519
-0.00276879
-0.00779241
-0.0110331
-0.011604
-0.00986433
-0.00648265
-0.0012537
0.00578944
0.0133281
0.0203548
0.0273549
0.0345962
0.0408826
0.0456068
0.050025
0.0553032
0.060371
0.0632614
0.0635462
0.0622747
0.0601124
0.0563749
0.0503583
0.0424994
0.0341561
0.0264953
0.0198311
0.0132617
0.00530191
-0.00513431
-0.0180087
-0.0320558
-0.0461643
-0.0605236
-0.0755436
-0.0892875
-0.0970956
-0.0944721
-0.0806157
-0.059467
-0.0372242
-0.0176035
-0.000452265
0.0156874
0.0308471
0.042275
0.0462513
0.0422665
0.03406
0.0275452
0.0275453
0.0340599
0.042266
0.0462502
0.0422734
0.0308455
0.0156865
-0.000452415
-0.017603
-0.0372236
-0.0594665
-0.0806154
-0.0944716
-0.0970947
-0.0892864
-0.0755429
-0.0605238
-0.0461655
-0.0320577
-0.0180109
-0.00513669
0.00529939
0.0132592
0.0198291
0.026494
0.0341558
0.0424999
0.0503595
0.0563767
0.0601148
0.0622774
0.0635492
0.0632641
0.0603732
0.0553047
0.0500261
0.0456082
0.0408844
0.0345982
0.0273566
0.0203559
0.0133284
0.0057887
-0.00125523
-0.00648485
-0.00986732
-0.0116078
-0.0110369
-0.00779524
-0.00276981
-0.00442419
-0.0126967
-0.0188845
-0.0218195
-0.0219736
-0.0203045
-0.0164552
-0.00994052
-0.001776
0.0067237
0.0154631
0.0243345
0.0321547
0.0384675
0.0445136
0.0514598
0.0584052
0.0635462
0.0663597
0.0677214
0.0682069
0.0669906
0.0630599
0.0565775
0.0488825
0.041163
0.0335744
0.0250066
0.0141562
0.000566144
-0.0149967
-0.0308305
-0.0458941
-0.0608376
-0.0763687
-0.0904934
-0.0983446
-0.095306
-0.0808639
-0.0595817
-0.0380172
-0.0195452
-0.00306578
0.0138357
0.0313613
0.0458938
0.0523806
0.0494643
0.0410597
0.034019
0.0340192
0.0410601
0.0494643
0.0523798
0.0458922
0.0313594
0.0138343
-0.00306623
-0.0195448
-0.0380165
-0.0595811
-0.0808636
-0.0953056
-0.0983438
-0.0904923
-0.0763678
-0.0608377
-0.0458955
-0.0308328
-0.0149994
0.000563319
0.0141534
0.0250041
0.0335725
0.0411621
0.0488827
0.0565787
0.063062
0.0669933
0.0682099
0.0677245
0.0663629
0.0635492
0.0584075
0.0514614
0.0445147
0.0384689
0.0321566
0.0243367
0.0154648
0.00672413
-0.00177719
-0.00994311
-0.0164585
-0.0203079
-0.0219774
-0.021824
-0.0188893
-0.0127003
-0.00442555
-0.00509943
-0.0149896
-0.0232354
-0.0283114
-0.0304499
-0.030654
-0.0284419
-0.0229658
-0.0150312
-0.00616128
0.00327342
0.013138
0.0223616
0.0303753
0.038056
0.046455
0.0550031
0.0622747
0.0677214
0.0719533
0.0753305
0.0768801
0.0753733
0.0707681
0.0643185
0.0570684
0.0488563
0.038343
0.0245044
0.00761689
-0.0108181
-0.0287446
-0.0452019
-0.0611144
-0.0772165
-0.0913598
-0.0986735
-0.0948132
-0.0798572
-0.0589852
-0.0388132
-0.0220545
-0.00651011
0.0111688
0.0312337
0.0491311
0.0584995
0.0571113
0.048957
0.0416838
0.0416841
0.0489575
0.0571116
0.0584989
0.0491295
0.0312316
0.011167
-0.00651092
-0.0220542
-0.0388122
-0.0589843
-0.0798565
-0.0948127
-0.0986728
-0.0913589
-0.0772159
-0.0611147
-0.0452036
-0.0287475
-0.0108215
0.00761352
0.0245015
0.0383408
0.048855
0.0570682
0.0643194
0.0707702
0.0753762
0.0768836
0.0753341
0.0719568
0.0677245
0.0622774
0.0550053
0.0464566
0.0380573
0.0303767
0.0223632
0.0131396
0.00327427
-0.00616179
-0.0150335
-0.0229696
-0.0284463
-0.0306584
-0.0304542
-0.028316
-0.0232399
-0.0149929
-0.00510064
-0.00504667
-0.0153235
-0.024908
-0.0318602
-0.0359014
-0.0379143
-0.0373899
-0.0333135
-0.0263464
-0.0180669
-0.00881856
0.00151321
0.0120144
0.0217736
0.0310597
0.0407634
0.0507673
0.0601124
0.0682069
0.0753305
0.0816167
0.0860476
0.087307
0.0851795
0.0807106
0.0746334
0.0663706
0.0543697
0.0379137
0.0179524
-0.00342188
-0.023924
-0.042599
-0.0603192
-0.0774812
-0.0916752
-0.0982439
-0.09347
-0.0782149
-0.0581599
-0.0396851
-0.0246818
-0.00994132
0.00860649
0.0311191
0.0521696
0.0643013
0.0645404
0.0568911
0.0496073
0.0496074
0.0568914
0.0645404
0.0643004
0.0521678
0.0311168
0.00860446
-0.00994229
-0.0246814
-0.0396837
-0.0581582
-0.0782136
-0.0934692
-0.0982435
-0.091675
-0.0774814
-0.0603203
-0.0426015
-0.0239275
-0.00342582
0.0179488
0.037911
0.0543682
0.0663705
0.0746344
0.0807127
0.0851825
0.0873107
0.0860516
0.0816207
0.0753341
0.0682099
0.0601148
0.0507691
0.0407649
0.0310611
0.0217749
0.0120154
0.0015136
-0.0088191
-0.0180686
-0.0263494
-0.0333179
-0.037395
-0.0379194
-0.0359062
-0.0318645
-0.0249114
-0.0153256
-0.00504739
-0.00453302
-0.0142863
-0.0243722
-0.0325215
-0.037974
-0.0415029
-0.0426481
-0.0402956
-0.0349238
-0.0280357
-0.0198029
-0.0097403
0.00145547
0.012499
0.02302
0.0337615
0.0450646
0.0563749
0.0669906
0.0768801
0.0860476
0.093553
0.0980547
0.0991303
0.0975107
0.0935442
0.0862283
0.0738048
0.0557638
0.0334872
0.00939273
-0.0141364
-0.0360001
-0.0566181
-0.0756734
-0.090394
-0.096491
-0.0910727
-0.0757918
-0.0566414
-0.0395843
-0.0257563
-0.0112529
0.00838107
0.0330692
0.0566531
0.0708985
0.0723245
0.064997
0.057676
0.0576759
0.0649968
0.0723239
0.070897
0.0566508
0.0330667
0.00837904
-0.0112536
-0.0257555
-0.0395822
-0.056639
-0.0757898
-0.0910717
-0.0964909
-0.0903946
-0.0756748
-0.0566204
-0.0360034
-0.0141404
0.00938879
0.0334841
0.055762
0.0738045
0.0862295
0.0935466
0.0975141
0.0991342
0.0980589
0.0935574
0.0860516
0.0768836
0.0669933
0.0563767
0.0450659
0.0337626
0.0230212
0.0124999
0.00145565
-0.00974126
-0.0198049
-0.0280386
-0.0349273
-0.0402999
-0.0426531
-0.0415081
-0.0379788
-0.0325252
-0.0243744
-0.0142872
-0.00453319
-0.00376508
-0.0122922
-0.0218373
-0.0300514
-0.0360229
-0.0405641
-0.043258
-0.0428109
-0.0394104
-0.0344339
-0.0279262
-0.0190602
-0.00821532
0.00312396
0.0140947
0.0253187
0.0374992
0.0503583
0.0630599
0.0753733
0.087307
0.0980547
0.106219
0.111112
0.113109
0.112182
0.106938
0.0954122
0.0771481
0.0536576
0.0273825
0.000665728
-0.0251093
-0.0495646
-0.0713677
-0.0872891
-0.0934604
-0.087853
-0.0728115
-0.0544676
-0.0382921
-0.0248294
-0.00983051
0.0112094
0.0378425
0.0633032
0.0788745
0.0808251
0.073399
0.0658591
0.0658589
0.0733984
0.0808238
0.0788725
0.0633006
0.0378399
0.0112076
-0.00983081
-0.024828
-0.0382894
-0.0544646
-0.0728093
-0.0878522
-0.0934611
-0.087291
-0.0713705
-0.049568
-0.0251131
0.000661805
0.0273792
0.0536555
0.0771476
0.0954133
0.106941
0.112185
0.113113
0.111117
0.106223
0.0980589
0.0873107
0.0753762
0.063062
0.0503595
0.0374999
0.0253192
0.0140951
0.00312413
-0.00821611
-0.0190623
-0.0279294
-0.0344376
-0.0394142
-0.0428149
-0.0432624
-0.0405686
-0.0360269
-0.0300541
-0.0218385
-0.0122922
-0.00376491
-0.0029136
-0.00975928
-0.0177797
-0.024855
-0.0303451
-0.0352586
-0.0391662
-0.0404933
-0.0390578
-0.0361256
-0.0317543
-0.0248859
-0.0154853
-0.00497467
0.00550082
0.0164536
0.0288188
0.0424994
0.0565775
0.0707681
0.0851795
0.0991303
0.111112
0.120129
0.126175
0.128853
0.126444
0.116834
0.09955
0.0759826
0.0483073
0.0186695
-0.0111914
-0.0398789
-0.0648834
-0.0825003
-0.0893305
-0.0841921
-0.0699659
-0.0526984
-0.037246
-0.0236657
-0.00766058
0.0150274
0.0434614
0.0703971
0.0868994
0.0891728
0.0816469
0.0739581
0.0739578
0.081646
0.0891713
0.0868974
0.0703947
0.0434592
0.015026
-0.00766054
-0.0236641
-0.0372432
-0.0526956
-0.0699641
-0.084192
-0.0893321
-0.0825032
-0.0648871
-0.0398828
-0.0111952
0.0186663
0.0483051
0.0759819
0.099551
0.116836
0.126447
0.128857
0.126179
0.120134
0.111117
0.0991342
0.0851825
0.0707702
0.0565787
0.0425
0.0288188
0.0164533
0.00550033
-0.00497554
-0.0154871
-0.0248887
-0.031758
-0.0361296
-0.0390616
-0.0404969
-0.0391697
-0.0352619
-0.0303477
-0.0248566
-0.0177802
-0.00975907
-0.0029134
-0.00208194
-0.00705741
-0.0129463
-0.0180848
-0.0223621
-0.0270281
-0.0316149
-0.0342925
-0.0345251
-0.0334695
-0.0312902
-0.0268195
-0.0195758
-0.0107124
-0.00147781
0.0085345
0.0203963
0.0341561
0.0488825
0.0643185
0.0807106
0.0975107
0.113109
0.126175
0.136259
0.142578
0.143196
0.136023
0.120586
0.0979651
0.0698248
0.0379871
0.00457551
-0.0279309
-0.0559035
-0.0753308
-0.0834239
-0.0798071
-0.0676327
-0.0524901
-0.0383731
-0.0248725
-0.00786812
0.0164359
0.0465813
0.0750157
0.0927935
0.096073
0.0892373
0.0819354
0.0819351
0.0892363
0.0960717
0.092792
0.0750142
0.04658
0.0164352
-0.00786797
-0.0248713
-0.0383712
-0.0524882
-0.0676317
-0.0798078
-0.0834264
-0.0753345
-0.0559076
-0.0279347
0.00457245
0.0379851
0.0698242
0.097966
0.120588
0.136026
0.1432
0.142583
0.136264
0.126179
0.113114
0.0975141
0.0807127
0.0643194
0.0488827
0.0341558
0.0203956
0.0085334
-0.00147927
-0.0107143
-0.0195783
-0.0268226
-0.0312938
-0.0334732
-0.0345285
-0.0342955
-0.0316174
-0.0270299
-0.0223632
-0.0180854
-0.0129466
-0.00705746
-0.00208193
-0.00132234
-0.00449593
-0.0081885
-0.0112435
-0.0140362
-0.0179536
-0.0225525
-0.0259599
-0.0274039
-0.0278761
-0.0276288
-0.025479
-0.0205658
-0.0136986
-0.00612097
0.00248483
0.0132944
0.0264953
0.041163
0.0570684
0.0746334
0.0935442
0.112182
0.128853
0.142578
0.152196
0.155738
0.151335
0.138518
0.117884
0.0904038
0.0575246
0.0217506
-0.013447
-0.0435844
-0.0646683
-0.0746964
-0.0739792
-0.0655601
-0.0541218
-0.0425256
-0.0298878
-0.0123912
0.0132212
0.0450366
0.0753585
0.0953123
0.100853
0.0959405
0.0897934
0.0897932
0.0959399
0.100853
0.0953116
0.0753579
0.0450361
0.013221
-0.0123911
-0.0298873
-0.0425249
-0.0541212
-0.0655603
-0.0739807
-0.0746994
-0.0646721
-0.0435883
-0.0134501
0.0217488
0.0575242
0.0904048
0.117886
0.138522
0.15134
0.155743
0.152201
0.142583
0.128857
0.112185
0.0935466
0.0746344
0.0570682
0.0411621
0.026494
0.0132929
0.00248302
-0.00612325
-0.0137014
-0.0205689
-0.0254822
-0.0276319
-0.0278791
-0.0274066
-0.0259621
-0.0225539
-0.0179541
-0.0140361
-0.0112433
-0.00818867
-0.00449631
-0.00132254
-0.000641936
-0.00224217
-0.00410436
-0.00547399
-0.0069259
-0.00977836
-0.0137388
-0.0172063
-0.0193428
-0.0208835
-0.0220739
-0.0217894
-0.0189382
-0.0140387
-0.00828702
-0.00141968
0.00785035
0.0198311
0.0335744
0.0488563
0.0663706
0.0862283
0.106938
0.126444
0.143196
0.155738
0.162231
0.161097
0.151764
0.134187
0.108565
0.0759919
0.0393224
0.00282134
-0.0285344
-0.0511009
-0.0637365
-0.0671956
-0.0640035
-0.0575793
-0.0495207
-0.0385249
-0.0211554
0.00531505
0.0386361
0.071106
0.0939441
0.102744
0.10073
0.0963404
0.0963403
0.100729
0.102744
0.0939438
0.0711059
0.0386361
0.00531497
-0.0211555
-0.0385251
-0.049521
-0.0575799
-0.0640047
-0.0671976
-0.0637395
-0.0511043
-0.0285375
0.00281925
0.0393218
0.0759929
0.108567
0.13419
0.151769
0.161102
0.162236
0.155743
0.1432
0.126447
0.106941
0.0862295
0.0663705
0.048855
0.0335725
0.0198291
0.00784823
-0.00142202
-0.00828979
-0.0140419
-0.0189414
-0.0217924
-0.0220765
-0.0208857
-0.0193448
-0.0172076
-0.0137393
-0.00977794
-0.00692503
-0.0054734
-0.00410442
-0.0022426
-0.000642178
-5.08277e-05
-0.000381864
-0.000950797
-0.00124214
-0.0016922
-0.00334111
-0.00615834
-0.00908619
-0.0113873
-0.0134889
-0.0155564
-0.0165876
-0.0154204
-0.0123864
-0.00861674
-0.00385664
0.00330571
0.0132617
0.0250066
0.038343
0.0543697
0.0738048
0.0954122
0.116834
0.136023
0.151335
0.161097
0.163907
0.158896
0.145258
0.122449
0.091301
0.0549997
0.01839
-0.0133963
-0.0372952
-0.0529501
-0.0612471
-0.0638611
-0.0627835
-0.0584247
-0.0492553
-0.0323687
-0.00560583
0.0285635
0.0626326
0.0880675
0.100133
0.101202
0.0987301
0.0987298
0.101201
0.100133
0.0880669
0.0626323
0.0285634
-0.00560601
-0.0323691
-0.049256
-0.0584256
-0.0627847
-0.0638627
-0.0612491
-0.0529525
-0.0372977
-0.0133984
0.018389
0.0550003
0.0913031
0.122452
0.145263
0.158901
0.163912