/*--------------------------------*- C++ -*----------------------------------*\
  =========                 |
  \\      /  F ield         | OpenFOAM: The Open Source CFD Toolbox
   \\    /   O peration     | Website:  https://openfoam.org
    \\  /    A nd           | Version:  10
     \\/     M anipulation  |
\*---------------------------------------------------------------------------*/
FoamFile
{
    format      ascii;
    class       volScalarField;
    location    "21";
    object      h_0;
}
// * * * * * * * * * * * * * * * * * * * * * * * * * * * * * * * * * * * * * //

dimensions      [0 1 0 0 0 0 0];

internalField   nonuniform List<scalar> 
10000
(
0.00305228
0.0093173
0.015297
0.0193057
0.0197222
0.0165457
0.0114963
0.00663045
0.00278378
-0.00079189
-0.00515643
-0.00989296
-0.0128539
-0.0120753
-0.0078419
-0.0025481
0.00136112
0.0030292
0.00303611
0.00226171
0.00114521
-0.00029008
-0.00205935
-0.00389374
-0.00520693
-0.0053562
-0.00396081
-0.00108105
0.00278773
0.00688228
0.0104045
0.0127194
0.0134731
0.0126161
0.0103516
0.00704581
0.0031309
-0.000977627
-0.00493469
-0.00849378
-0.0115099
-0.013928
-0.0157633
-0.017078
-0.0179612
-0.0185111
-0.0188229
-0.0189795
-0.0190465
-0.0190687
-0.0190689
-0.019047
-0.0189803
-0.018824
-0.0185124
-0.0179627
-0.0170798
-0.0157652
-0.0139298
-0.0115115
-0.00849504
-0.0049354
-0.000977606
0.00313179
0.00704761
0.0103542
0.0126194
0.0134767
0.0127228
0.0104071
0.00688382
0.00278791
-0.00108215
-0.00396282
-0.00535855
-0.00520902
-0.00389519
-0.00206008
-0.000290281
0.00114535
0.00226219
0.00303716
0.0030309
0.00136294
-0.00254731
-0.00784309
-0.0120782
-0.0128567
-0.00989403
-0.00515572
-0.000790667
0.00278432
0.00663031
0.0114966
0.0165473
0.0197251
0.0193087
0.0152987
0.0093176
0.00305212
0.0093173
0.0273534
0.0428203
0.0525884
0.0539885
0.0468822
0.034173
0.0200899
0.00736964
-0.00412429
-0.0155573
-0.0259194
-0.0316557
-0.0300389
-0.0221822
-0.0121246
-0.00351641
0.00226283
0.00544399
0.00652905
0.00580194
0.0035071
0.000131759
-0.00344352
-0.00612201
-0.00700261
-0.00568566
-0.0023678
0.00225501
0.00723855
0.0116581
0.0148046
0.0162905
0.0160526
0.0142856
0.0113498
0.00767097
0.00366269
-0.000325052
-0.0040338
-0.00729807
-0.0100383
-0.0122413
-0.0139415
-0.0152019
-0.0160985
-0.016708
-0.0170993
-0.017328
-0.0174326
-0.0174327
-0.0173284
-0.0171
-0.0167089
-0.0160996
-0.0152033
-0.013943
-0.0122428
-0.0100398
-0.00729929
-0.00403463
-0.000325321
0.00366315
0.00767227
0.011352
0.0142886
0.0160562
0.0162944
0.0148082
0.0116608
0.00724005
0.00225492
-0.00236945
-0.00568849
-0.00700593
-0.00612502
-0.00344554
0.000131051
0.00350759
0.00580325
0.00653082
0.00544599
0.0022649
-0.00351485
-0.0121247
-0.022185
-0.030044
-0.0316605
-0.0259215
-0.0155565
-0.00412249
0.0073706
0.0200904
0.034175
0.046887
0.0539954
0.0525951
0.0428247
0.0273552
0.00931755
0.015297
0.0428203
0.0627583
0.0736174
0.075426
0.0682883
0.0531436
0.0328374
0.0111425
-0.0089289
-0.0251789
-0.035651
-0.0394458
-0.0376943
-0.0325349
-0.0252827
-0.0163717
-0.00674523
0.00173136
0.0074415
0.0100351
0.0102345
0.00913307
0.00762259
0.00604761
0.00429847
0.00217872
-0.000345199
-0.00304365
-0.00546942
-0.00713116
-0.00765059
-0.00685595
-0.00481216
-0.00177364
0.00189536
0.0057985
0.00958282
0.012976
0.0158067
0.0180016
0.0195659
0.0205661
0.0211013
0.0212889
0.0212443
0.0210743
0.0208669
0.0206907
0.0205912
0.0205913
0.0206911
0.0208676
0.0210752
0.0212456
0.0212904
0.021103
0.020568
0.0195679
0.0180035
0.0158084
0.0129774
0.00958361
0.00579859
0.00189467
-0.00177513
-0.00481431
-0.00685852
-0.00765324
-0.00713351
-0.00547118
-0.00304466
-0.000345498
0.0021789
0.00429886
0.00604804
0.00762313
0.00913403
0.0102361
0.0100374
0.00744384
0.00173262
-0.00674596
-0.0163744
-0.0252863
-0.0325384
-0.0376974
-0.0394484
-0.0356528
-0.0251795
-0.00892849
0.0111437
0.0328401
0.0531485
0.0682952
0.0754337
0.0736245
0.0627643
0.0428247
0.0152986
0.0193057
0.0525884
0.0736174
0.0824516
0.0825047
0.0757997
0.0621638
0.0412831
0.0148758
-0.0121136
-0.0328377
-0.0429461
-0.0438448
-0.0403475
-0.0355507
-0.0293687
-0.0213163
-0.0125902
-0.00496194
0.000950957
0.00556789
0.00938875
0.0125918
0.0148913
0.0156538
0.0144229
0.0112144
0.00649066
0.00106446
-0.00415105
-0.00838561
-0.0111224
-0.0121522
-0.0115464
-0.00956373
-0.00657515
-0.00297886
0.000863858
0.00465089
0.00816966
0.0112815
0.0139218
0.0160791
0.01778
0.0190767
0.0200293
0.0207025
0.0211519
0.0214248
0.0215529
0.021553
0.0214252
0.0211525
0.0207033
0.0200304
0.0190779
0.0177813
0.0160804
0.013923
0.0112825
0.00817043
0.0046512
0.000863555
-0.00297989
-0.00657698
-0.00956634
-0.0115496
-0.0121559
-0.011126
-0.00838873
-0.0041532
0.00106364
0.00649132
0.0112163
0.0144257
0.0156568
0.0148938
0.0125936
0.00938975
0.00556835
0.000950992
-0.00496257
-0.0125921
-0.0213197
-0.0293726
-0.0355535
-0.0403488
-0.0438461
-0.0429484
-0.0328401
-0.0121138
0.0148788
0.0412886
0.0621705
0.0758062
0.0825107
0.0824577
0.0736244
0.052595
0.0193086
0.0197222
0.0539885
0.075426
0.0825047
0.0790925
0.0703864
0.0581836
0.039878
0.0136342
-0.0156993
-0.0385246
-0.0487434
-0.0476887
-0.0402185
-0.0303045
-0.0208461
-0.01432
-0.0114084
-0.0101365
-0.00788198
-0.00376551
0.00146776
0.00663216
0.0106459
0.0130398
0.0140928
0.014286
0.014007
0.0134627
0.0125978
0.0112544
0.00932068
0.00677439
0.00373356
0.000426318
-0.00288992
-0.00595147
-0.00855967
-0.0105911
-0.0119954
-0.0128044
-0.0130861
-0.0129549
-0.0125255
-0.0119217
-0.0112495
-0.0106031
-0.0100554
-0.00966088
-0.00945496
-0.00945505
-0.00966116
-0.0100559
-0.0106038
-0.0112504
-0.0119228
-0.0125268
-0.0129565
-0.0130878
-0.0128062
-0.0119972
-0.0105928
-0.00856112
-0.00595255
-0.00289052
0.000426244
0.00373399
0.00677522
0.00932174
0.0112555
0.0125989
0.0134637
0.014008
0.0142872
0.0140943
0.0130415
0.0106475
0.00663283
0.0014669
-0.00376803
-0.00788554
-0.0101397
-0.0114099
-0.0143199
-0.0208455
-0.0303042
-0.0402189
-0.0476905
-0.048747
-0.0385283
-0.0156996
0.0136387
0.039885
0.0581897
0.0703907
0.0790967
0.0825106
0.0754336
0.0539954
0.019725
0.0165457
0.0468822
0.0682883
0.0757997
0.0703864
0.0582415
0.0434082
0.0244073
0.000279791
-0.0240461
-0.0416006
-0.0492736
-0.0474795
-0.0378817
-0.0242673
-0.0125346
-0.00671877
-0.00589003
-0.00639027
-0.00608163
-0.00495102
-0.00324898
-0.00115135
0.00114148
0.00386804
0.00722005
0.0109528
0.0147098
0.0180086
0.0203463
0.0214442
0.0212008
0.0196798
0.0171185
0.0138008
0.0100322
0.00611775
0.00227819
-0.00128823
-0.00447329
-0.00720934
-0.00947579
-0.0112976
-0.0127055
-0.0137657
-0.0145278
-0.0150599
-0.0154064
-0.0156151
-0.0157111
-0.0157112
-0.0156154
-0.015407
-0.0150606
-0.0145287
-0.0137668
-0.0127067
-0.0112989
-0.00947712
-0.0072106
-0.00447439
-0.00128905
0.00227777
0.00611784
0.0100329
0.0138021
0.0171204
0.0196823
0.0212036
0.0214471
0.0203489
0.0180106
0.014711
0.0109531
0.00721961
0.00386704
0.00114018
-0.00115296
-0.00325119
-0.00495395
-0.00608522
-0.00639369
-0.00589145
-0.00671696
-0.0125307
-0.024264
-0.0378805
-0.0474803
-0.0492761
-0.041604
-0.0240479
0.000281687
0.0244119
0.0434126
0.0582449
0.0703907
0.0758061
0.0682952
0.046887
0.0165473
0.0114963
0.034173
0.0531436
0.0621638
0.0581836
0.0434082
0.021822
-0.00198112
-0.0220851
-0.0348881
-0.0423077
-0.0470322
-0.0472222
-0.0400591
-0.0274031
-0.0141485
-0.00322288
0.00494044
0.00952006
0.00933725
0.00555998
0.00105877
-0.00227181
-0.0034635
-0.00222701
0.000565006
0.00391041
0.00720455
0.0099774
0.0121528
0.0138797
0.0152542
0.0163892
0.017339
0.0180406
0.0184751
0.0185833
0.0183333
0.0177644
0.0168828
0.015792
0.0145391
0.0132291
0.0119246
0.0106988
0.00960657
0.00868658
0.00797523
0.00748826
0.00724287
0.00724289
0.00748832
0.00797534
0.00868676
0.00960684
0.0106992
0.0119251
0.0132297
0.0145398
0.0157929
0.0168837
0.0177654
0.0183343
0.0185843
0.0184761
0.0180415
0.0173398
0.01639
0.015255
0.0138805
0.0121536
0.0099782
0.007205
0.00391013
0.000563708
-0.00222951
-0.00346691
-0.00227535
0.00105587
0.00555843
0.0093373
0.00952085
0.00494124
-0.00322146
-0.0141459
-0.0274002
-0.0400572
-0.0472211
-0.0470313
-0.0423082
-0.034891
-0.0220888
-0.00198242
0.021824
0.0434126
0.0581896
0.0621704
0.0531485
0.034175
0.0114966
0.00663045
0.0200899
0.0328374
0.0412831
0.039878
0.0244073
-0.00198112
-0.0271342
-0.0401932
-0.04315
-0.0459385
-0.0519595
-0.0556827
-0.0519056
-0.0402428
-0.0226069
-0.00203948
0.016183
0.0263856
0.027403
0.022907
0.0163084
0.00942928
0.0040106
0.000492149
-0.00163554
-0.00238542
-0.0020326
-0.000947685
0.000817157
0.00304553
0.00553032
0.0082025
0.0108938
0.0134863
0.0159509
0.0181414
0.0200734
0.0216765
0.0229422
0.0239044
0.0245402
0.0249466
0.0251129
0.0251472
0.0250582
0.0249325
0.0247876
0.0246767
0.0246125
0.0246125
0.0246769
0.024788
0.024933
0.0250589
0.0251481
0.0251139
0.0249477
0.0245415
0.0239057
0.0229434
0.0216777
0.0200745
0.0181423
0.0159516
0.0134866
0.0108939
0.00820222
0.0055297
0.00304462
0.000815946
-0.000949152
-0.00203429
-0.00238742
-0.00163784
0.000489536
0.00400766
0.00942657
0.0163068
0.0229071
0.0274056
0.0263905
0.0161879
-0.00203669
-0.022606
-0.0402427
-0.0519057
-0.0556823
-0.0519576
-0.0459362
-0.0431509
-0.040199
-0.0271407
-0.00198244
0.0244119
0.0398849
0.0412885
0.03284
0.0200904
0.00663028
0.00278378
0.00736964
0.0111425
0.0148758
0.0136342
0.000279791
-0.0220851
-0.0401932
-0.0472646
-0.0503109
-0.0571128
-0.0659659
-0.0711216
-0.0689495
-0.0573311
-0.0361905
-0.00996819
0.0137175
0.0298427
0.0389564
0.0424347
0.0398806
0.0328943
0.0241415
0.0147787
0.00644274
0.000468792
-0.00325035
-0.00475851
-0.00440879
-0.00293571
-0.000745276
0.00179655
0.00429664
0.00669575
0.00885215
0.0106895
0.0123129
0.0135951
0.0147044
0.0155591
0.0162604
0.0168103
0.0172255
0.017563
0.0177929
0.017983
0.0180957
0.0181804
0.018214
0.018214
0.0181805
0.0180959
0.0179832
0.0177931
0.0175633
0.0172258
0.0168107
0.0162608
0.0155596
0.014705
0.0135957
0.0123135
0.0106901
0.00885263
0.00669604
0.00429663
0.00179615
-0.00074625
-0.00293732
-0.00441108
-0.00476148
-0.00325369
0.000465408
0.00643972
0.0147768
0.0241408
0.0328949
0.0398826
0.0424376
0.0389599
0.0298474
0.0137232
-0.00996403
-0.0361894
-0.0573324
-0.0689517
-0.0711237
-0.0659667
-0.0571115
-0.0503094
-0.0472669
-0.040199
-0.0220888
0.000281637
0.0136387
0.0148787
0.0111437
0.00737057
0.00278429
-0.00079189
-0.00412429
-0.0089289
-0.0121136
-0.0156993
-0.0240461
-0.0348881
-0.04315
-0.0503109
-0.0602256
-0.0710305
-0.0791802
-0.0842241
-0.0846675
-0.0765935
-0.0585852
-0.0339893
-0.00787559
0.0170952
0.0390042
0.0533848
0.0583985
0.0569124
0.0505262
0.0407271
0.0304986
0.0208249
0.0122972
0.00584911
0.001245
-0.00171705
-0.00315307
-0.00361566
-0.00344592
-0.00277966
-0.00205387
-0.00118189
-0.000332837
0.000455577
0.00131681
0.00204989
0.0028949
0.00361462
0.00439544
0.00506046
0.00570071
0.00621899
0.00664029
0.00692427
0.00707122
0.00707119
0.0069242
0.00664015
0.0062188
0.00570045
0.00506014
0.00439505
0.00361417
0.00289441
0.00204935
0.00131626
0.00045499
-0.000333429
-0.00118252
-0.0020546
-0.00278051
-0.00344703
-0.00361704
-0.0031548
-0.00171917
0.00124265
0.00584662
0.0122948
0.0208232
0.0304977
0.0407274
0.0505283
0.0569158
0.0584031
0.0533902
0.0390085
0.0170978
-0.00787343
-0.0339875
-0.0585847
-0.0765947
-0.0846696
-0.0842264
-0.0791827
-0.0710321
-0.0602248
-0.0503094
-0.0431509
-0.0348911
-0.024048
-0.0156997
-0.0121139
-0.00892853
-0.00412253
-0.000790691
-0.00515643
-0.0155573
-0.0251789
-0.0328377
-0.0385246
-0.0416006
-0.0423077
-0.0459385
-0.0571128
-0.0710305
-0.0802833
-0.0858101
-0.0918521
-0.0970804
-0.0965563
-0.0866389
-0.0670132
-0.0398113
-0.00817006
0.0216286
0.0437163
0.0589525
0.0684283
0.0707521
0.068078
0.0621242
0.0529105
0.0424761
0.0318906
0.0215162
0.0123931
0.00481308
-0.00127194
-0.00553358
-0.0082366
-0.00966431
-0.00974015
-0.00916379
-0.00777478
-0.00611948
-0.00424696
-0.00230575
-0.000550424
0.00116542
0.00252951
0.00378672
0.00468338
0.00542674
0.00586457
0.0061082
0.00610822
0.00586463
0.00542683
0.00468348
0.00378682
0.00252954
0.00116536
-0.000550659
-0.00230619
-0.0042477
-0.00612056
-0.00777623
-0.00916568
-0.00974239
-0.00966694
-0.00823943
-0.00553651
-0.00127481
0.00481059
0.0123911
0.0215149
0.0318904
0.0424768
0.0529123
0.0621272
0.0680815
0.0707563
0.068433
0.0589566
0.0437205
0.0216324
-0.00816864
-0.0398123
-0.0670151
-0.0866408
-0.0965579
-0.0970814
-0.0918527
-0.0858112
-0.0802856
-0.0710321
-0.0571115
-0.0459362
-0.0423082
-0.041604
-0.0385283
-0.0328401
-0.0251795
-0.0155565
-0.00515572
-0.00989296
-0.0259194
-0.035651
-0.0429461
-0.0487434
-0.0492736
-0.0470322
-0.0519595
-0.0659659
-0.0791802
-0.0858101
-0.0903499
-0.0975997
-0.106931
-0.113314
-0.110561
-0.0962552
-0.0715375
-0.0405053
-0.0103834
0.0162646
0.0403725
0.058421
0.0698083
0.0771893
0.0792676
0.0767606
0.0715871
0.0635176
0.0538886
0.0439828
0.034131
0.0251426
0.0176368
0.0112301
0.00639491
0.00272643
-0.000100751
-0.00185841
-0.00340615
-0.00417862
-0.00497445
-0.00534305
-0.00572175
-0.00593544
-0.00609714
-0.00622963
-0.00628818
-0.00635357
-0.00636714
-0.00636716
-0.00635367
-0.00628831
-0.00622984
-0.00609739
-0.00593576
-0.00572212
-0.0053435
-0.004975
-0.00417928
-0.00340702
-0.00185941
-0.000102042
0.00272496
0.00639325
0.0112283
0.0176351
0.0251412
0.0341302
0.0439828
0.0538895
0.0635198
0.0715903
0.0767644
0.0792721
0.0771937
0.069812
0.0584246
0.0403751
0.0162658
-0.0103823
-0.0405048
-0.071539
-0.0962582
-0.110564
-0.113317
-0.106931
-0.0975989
-0.0903492
-0.0858112
-0.0791827
-0.0659667
-0.0519577
-0.0470314
-0.0492762
-0.0487471
-0.0429484
-0.0356528
-0.0259215
-0.00989401
-0.0128539
-0.0316557
-0.0394458
-0.0438448
-0.0476887
-0.0474795
-0.0472222
-0.0556827
-0.0711216
-0.0842241
-0.0918521
-0.0975997
-0.105511
-0.116165
-0.124653
-0.125656
-0.117211
-0.098337
-0.0724517
-0.0450755
-0.0167714
0.0093557
0.0294656
0.0468439
0.0613316
0.0710172
0.0783831
0.0827264
0.0835942
0.0824101
0.0788903
0.073236
0.0664041
0.0584159
0.0495629
0.0409526
0.0319835
0.0239291
0.0163961
0.00972579
0.00425543
-0.000636915
-0.00416934
-0.00735148
-0.00940703
-0.0112377
-0.0123039
-0.0131988
-0.0136385
-0.0139008
-0.0139009
-0.0136389
-0.0131994
-0.0123048
-0.0112388
-0.00940838
-0.00735303
-0.00417096
-0.000638617
0.00425387
0.00972437
0.016395
0.0239285
0.0319834
0.0409532
0.0495641
0.0584179
0.0664066
0.0732389
0.0788937
0.0824137
0.0835978
0.08273
0.0783863
0.0710198
0.061334
0.046845
0.0294661
0.00935636
-0.0167719
-0.0450765
-0.0724522
-0.098338
-0.117212
-0.125658
-0.124655
-0.116166
-0.105511
-0.0975989
-0.0918527
-0.0842265
-0.0711237
-0.0556824
-0.0472212
-0.0474804
-0.0476905
-0.0438461
-0.0394485
-0.0316605
-0.0128566
-0.0120753
-0.0300389
-0.0376943
-0.0403475
-0.0402185
-0.0378817
-0.0400591
-0.0519056
-0.0689495
-0.0846675
-0.0970804
-0.106931
-0.116165
-0.125165
-0.132405
-0.137165
-0.135344
-0.122068
-0.100531
-0.0743539
-0.045685
-0.0210678
-0.000581742
0.0184568
0.0330949
0.0456472
0.0579283
0.0676677
0.0760536
0.0826668
0.0863395
0.0875922
0.0867229
0.0833407
0.0788256
0.0733164
0.0669472
0.0611991
0.0548336
0.049667
0.0443969
0.0400763
0.0361824
0.0327979
0.030141
0.0277273
0.0260865
0.0246463
0.0238629
0.023385
0.023385
0.0238629
0.0246462
0.0260864
0.0277271
0.0301409
0.0327977
0.0361822
0.0400761
0.0443967
0.049667
0.0548337
0.0611997
0.0669481
0.0733179
0.0788277
0.0833434
0.0867262
0.0875958
0.0863432
0.0826704
0.0760563
0.0676697
0.0579297
0.0456474
0.0330949
0.0184568
-0.000582605
-0.0210682
-0.0456851
-0.074355
-0.100532
-0.122069
-0.135345
-0.137165
-0.132406
-0.125167
-0.116166
-0.106931
-0.0970815
-0.0846697
-0.0689517
-0.0519057
-0.0400572
-0.0378805
-0.0402189
-0.0403488
-0.0376974
-0.0300439
-0.0120781
-0.0078419
-0.0221822
-0.0325349
-0.0355507
-0.0303045
-0.0242673
-0.0274031
-0.0402428
-0.0573311
-0.0765935
-0.0965563
-0.113314
-0.124653
-0.132405
-0.141664
-0.152669
-0.155713
-0.145544
-0.125748
-0.0980321
-0.0682564
-0.0433833
-0.0217984
-0.00507507
0.00641495
0.0176966
0.0275246
0.036282
0.0457367
0.0543161
0.062303
0.0700587
0.0768668
0.0824119
0.0875482
0.0905814
0.0929164
0.0937249
0.0930319
0.0920017
0.0891806
0.0868673
0.0832055
0.0803573
0.0769168
0.0742947
0.0717357
0.0699308
0.0685867
0.0679477
0.0679477
0.0685869
0.0699312
0.0717364
0.0742956
0.076918
0.0803588
0.0832073
0.0868696
0.089183
0.0920045
0.0930347
0.0937279
0.0929193
0.090584
0.0875507
0.0824137
0.0768683
0.0700598
0.0623036
0.0543165
0.0457367
0.0362814
0.0275239
0.0176956
0.00641378
-0.00507511
-0.0217981
-0.0433827
-0.0682551
-0.0980317
-0.125749
-0.145545
-0.155715
-0.15267
-0.141664
-0.132406
-0.124655
-0.113317
-0.096558
-0.0765948
-0.0573325
-0.0402428
-0.0274002
-0.024264
-0.0303042
-0.0355534
-0.0325384
-0.022185
-0.00784309
-0.0025481
-0.0121246
-0.0252827
-0.0293687
-0.0208461
-0.0125346
-0.0141485
-0.0226069
-0.0361905
-0.0585852
-0.0866389
-0.110561
-0.125656
-0.137165
-0.152669
-0.168446
-0.17426
-0.168777
-0.152373
-0.124744
-0.0944031
-0.0663137
-0.0411664
-0.023303
-0.0102275
-7.44558e-05
0.00612587
0.0122036
0.0184971
0.0250375
0.0328555
0.0414661
0.0498133
0.0581668
0.065852
0.0717653
0.0776091
0.080973
0.0843741
0.0861025
0.0873527
0.0882231
0.0881279
0.0885381
0.087893
0.0880399
0.0873834
0.0874039
0.0870195
0.0870137
0.0870137
0.0870197
0.0874042
0.0873838
0.0880404
0.0878936
0.0885389
0.0881287
0.0882243
0.087354
0.086104
0.0843759
0.0809748
0.0776111
0.071767
0.0658536
0.058168
0.0498137
0.041466
0.0328546
0.0250361
0.0184957
0.0122022
0.00612481
-7.46544e-05
-0.0102277
-0.0233026
-0.0411652
-0.0663127
-0.0944017
-0.124744
-0.152374
-0.168778
-0.174263
-0.168449
-0.15267
-0.137165
-0.125658
-0.110564
-0.0866408
-0.0585848
-0.0361895
-0.0226061
-0.0141459
-0.0125307
-0.0208455
-0.0293725
-0.0252862
-0.0121247
-0.00254732
0.00136112
-0.00351641
-0.0163717
-0.0213163
-0.01432
-0.00671877
-0.00322288
-0.00203948
-0.00996819
-0.0339893
-0.0670132
-0.0962552
-0.117211
-0.135344
-0.155713
-0.17426
-0.186966
-0.192777
-0.184433
-0.160619
-0.129867
-0.0957999
-0.0638969
-0.0396719
-0.0214153
-0.0098447
-0.00296401
0.00224286
0.00553411
0.0085152
0.0115375
0.0146869
0.0178073
0.0221039
0.0262148
0.0313319
0.0371099
0.0424568
0.0492527
0.0544375
0.0609236
0.0656206
0.070816
0.0747015
0.0783017
0.0811426
0.0832972
0.0850006
0.0859858
0.0865499
0.08655
0.085986
0.085001
0.0832977
0.0811433
0.0783022
0.0747021
0.0708165
0.0656208
0.0609237
0.0544371
0.0492521
0.0424557
0.0371087
0.0313306
0.0262134
0.0221027
0.0178062
0.0146861
0.0115368
0.00851464
0.00553378
0.00224289
-0.00296372
-0.00984359
-0.0214135
-0.03967
-0.063895
-0.0957991
-0.129867
-0.16062
-0.184436
-0.19278
-0.186968
-0.174263
-0.155715
-0.135345
-0.117212
-0.0962582
-0.0670151
-0.0339875
-0.00996407
-0.00203673
-0.00322147
-0.00671695
-0.0143199
-0.0213196
-0.0163744
-0.00351485
0.00136293
0.0030292
0.00226283
-0.00674523
-0.0125902
-0.0114084
-0.00589003
0.00494044
0.016183
0.0137175
-0.00787559
-0.0398113
-0.0715375
-0.098337
-0.122068
-0.145544
-0.168777
-0.192777
-0.211589
-0.212386
-0.195359
-0.16724
-0.131248
-0.0962604
-0.06713
-0.0432646
-0.0261951
-0.0141869
-0.00636448
-0.00195842
0.000408575
0.00169017
0.00260351
0.00370784
0.00599201
0.00810584
0.0119999
0.0153254
0.0195606
0.023708
0.0272708
0.031532
0.0341916
0.0379192
0.0398432
0.0426785
0.0440316
0.0458818
0.0467097
0.0476113
0.0478927
0.0478927
0.0476113
0.0467098
0.045882
0.0440318
0.0426787
0.0398434
0.0379195
0.0341917
0.0315321
0.0272707
0.0237079
0.0195602
0.0153246
0.011999
0.00810457
0.00599078
0.00370661
0.00260258
0.00168979
0.000408756
-0.00195765
-0.00636324
-0.0141855
-0.0261936
-0.043263
-0.0671285
-0.0962588
-0.131247
-0.167241
-0.195362
-0.212391
-0.211594
-0.19278
-0.168778
-0.145546
-0.122069
-0.098338
-0.071539
-0.0398123
-0.00787346
0.0137231
0.0161879
0.00494124
-0.00589142
-0.0114099
-0.0125921
-0.00674595
0.00226488
0.0030309
0.00303611
0.00544399
0.00173136
-0.00496194
-0.0101365
-0.00639027
0.00952006
0.0263856
0.0298427
0.0170952
-0.00817006
-0.0405053
-0.0724517
-0.100531
-0.125748
-0.152373
-0.184433
-0.212386
-0.223837
-0.220404
-0.202717
-0.172176
-0.138938
-0.106481
-0.0767833
-0.053762
-0.0361276
-0.0229856
-0.0136238
-0.00686272
-0.00152476
0.0018628
0.00440754
0.00587586
0.00600692
0.00639067
0.00517976
0.00513077
0.00399783
0.00396135
0.00377643
0.00397072
0.00476792
0.00520542
0.00650228
0.0070421
0.00826274
0.00870081
0.00941745
0.00958486
0.00958477
0.00941722
0.00870039
0.0082622
0.00704135
0.00650146
0.00520441
0.00476691
0.00396965
0.00377544
0.00396052
0.00399715
0.00513051
0.0051797
0.00639112
0.00600756
0.00587679
0.00440857
0.0018638
-0.00152367
-0.00686173
-0.0136227
-0.0229842
-0.0361263
-0.0537608
-0.0767825
-0.106481
-0.138939
-0.172178
-0.202719
-0.220407
-0.223841
-0.212391
-0.184436
-0.152374
-0.125749
-0.100532
-0.0724522
-0.0405048
-0.00816865
0.0170978
0.0298474
0.0263905
0.00952087
-0.00639364
-0.0101396
-0.00496254
0.00173261
0.00544597
0.00303717
0.00226171
0.00652905
0.0074415
0.000950957
-0.00788198
-0.00608163
0.00933725
0.027403
0.0389564
0.0390042
0.0216286
-0.0103834
-0.0450755
-0.0743539
-0.0980321
-0.124744
-0.160619
-0.195359
-0.220404
-0.233936
-0.227563
-0.204244
-0.175302
-0.14307
-0.11337
-0.0896406
-0.0690294
-0.0522125
-0.0388765
-0.0276383
-0.0187286
-0.0125847
-0.00736594
-0.0043404
-0.0020379
-0.000122679
0.000604735
0.0023046
0.00258238
0.00410312
0.00446209
0.00561689
0.00613479
0.00685956
0.0074184
0.00779552
0.00825165
0.00841163
0.00866375
0.00870543
0.00870542
0.00866379
0.00841164
0.0082517
0.00779553
0.00741843
0.00685953
0.00613474
0.00561679
0.00446191
0.00410295
0.0025821
0.00230447
0.000604581
-0.000122515
-0.00203752
-0.00433969
-0.0073648
-0.0125835
-0.0187271
-0.027637
-0.0388756
-0.0522118
-0.0690292
-0.0896406
-0.11337
-0.143071
-0.175304
-0.204247
-0.227567
-0.233941
-0.220407
-0.195362
-0.16062
-0.124744
-0.0980318
-0.074355
-0.0450765
-0.0103823
0.0216324
0.0390085
0.0389598
0.0274056
0.00933733
-0.00608517
-0.0078855
0.000951001
0.00744382
0.0065308
0.00226221
0.00114521
0.00580194
0.0100351
0.00556789
-0.00376551
-0.00495102
0.00555998
0.022907
0.0424347
0.0533848
0.0437163
0.0162646
-0.0167714
-0.045685
-0.0682564
-0.0944031
-0.129867
-0.16724
-0.202717
-0.227563
-0.230005
-0.217954
-0.198283
-0.171802
-0.147158
-0.125064
-0.104672
-0.088491
-0.0745545
-0.0619786
-0.0512707
-0.0415177
-0.0318113
-0.0241123
-0.0161538
-0.00994917
-0.00484514
-0.000204868
0.00216269
0.00507726
0.0056525
0.00704499
0.00679582
0.00716674
0.00671562
0.00659692
0.00623105
0.00601559
0.0058254
0.00573117
0.00573117
0.00582549
0.00601568
0.00623126
0.00659716
0.00671602
0.00716726
0.00679649
0.00704588
0.00565348
0.00507851
0.00216388
-0.000203496
-0.00484396
-0.0099481
-0.0161529
-0.0241118
-0.0318109
-0.0415176
-0.0512707
-0.0619786
-0.0745549
-0.0884914
-0.104673
-0.125065
-0.147159
-0.171804
-0.198286
-0.217956
-0.230008
-0.227567
-0.202719
-0.167241
-0.129867
-0.0944018
-0.0682551
-0.0456851
-0.0167719
0.0162658
0.0437204
0.0533901
0.0424376
0.0229071
0.00555847
-0.00495391
-0.003768
0.00556834
0.0100374
0.00580324
0.00114537
-0.00029008
0.0035071
0.0102345
0.00938875
0.00146776
-0.00324898
0.00105877
0.0163084
0.0398806
0.0583985
0.0589525
0.0403725
0.0093557
-0.0210678
-0.0433833
-0.0663137
-0.0957999
-0.131248
-0.172176
-0.204244
-0.217954
-0.219622
-0.207306
-0.185652
-0.165443
-0.145874
-0.129467
-0.116941
-0.10529
-0.0945289
-0.0846606
-0.0745445
-0.0648047
-0.0566476
-0.0477567
-0.0414798
-0.0346637
-0.0293466
-0.024835
-0.0200599
-0.0172403
-0.0131625
-0.0113261
-0.00818964
-0.00691891
-0.00479246
-0.00394583
-0.0027468
-0.00231492
-0.00193121
-0.00193123
-0.00231486
-0.00274679
-0.00394576
-0.0047924
-0.00691885
-0.00818953
-0.011326
-0.0131624
-0.0172402
-0.0200596
-0.0248347
-0.0293462
-0.0346631
-0.0414794
-0.047756
-0.0566473
-0.0648045
-0.0745446
-0.0846613
-0.0945297
-0.105291
-0.116942
-0.129468
-0.145875
-0.165444
-0.185653
-0.207309
-0.219624
-0.217956
-0.204247
-0.172178
-0.131247
-0.0957992
-0.0663127
-0.0433827
-0.0210681
0.00935639
0.0403751
0.0589566
0.058403
0.0398826
0.0163068
0.00105591
-0.00325115
0.00146691
0.00938973
0.0102361
0.00350759
-0.00029026
-0.00205935
0.000131759
0.00913307
0.0125918
0.00663216
-0.00115135
-0.00227181
0.00942928
0.0328943
0.0569124
0.0684283
0.058421
0.0294656
-0.000581742
-0.0217984
-0.0411664
-0.0638969
-0.0962604
-0.138938
-0.175302
-0.198283
-0.207306
-0.198061
-0.182161
-0.166806
-0.150728
-0.139049
-0.130291
-0.122658
-0.116566
-0.111286
-0.105119
-0.0994341
-0.0932978
-0.0858067
-0.0798175
-0.0714366
-0.0653291
-0.057763
-0.0516128
-0.0458489
-0.0401715
-0.0362627
-0.0316093
-0.0291576
-0.0258279
-0.0244153
-0.0224589
-0.0218134
-0.0211729
-0.0211729
-0.0218133
-0.0224587
-0.024415
-0.0258275
-0.0291573
-0.0316088
-0.0362624
-0.0401711
-0.0458488
-0.0516128
-0.0577631
-0.0653296
-0.0714371
-0.0798184
-0.0858075
-0.0932988
-0.0994352
-0.10512
-0.111287
-0.116567
-0.122659
-0.130292
-0.13905
-0.150728
-0.166807
-0.182162
-0.198062
-0.207309
-0.198285
-0.175304
-0.138939
-0.0962589
-0.063895
-0.0411652
-0.0217981
-0.000582561
0.0294661
0.0584245
0.0684329
0.0569158
0.0328949
0.00942661
-0.0022753
-0.00115294
0.00663283
0.0125935
0.00913401
0.000131065
-0.00206006
-0.00389374
-0.00344352
0.00762259
0.0148913
0.0106459
0.00114148
-0.0034635
0.0040106
0.0241415
0.0505262
0.0707521
0.0698083
0.0468439
0.0184568
-0.00507507
-0.023303
-0.0396719
-0.06713
-0.106481
-0.14307
-0.171802
-0.185652
-0.182161
-0.172599
-0.158219
-0.143189
-0.133873
-0.127161
-0.12334
-0.12181
-0.120584
-0.118272
-0.116589
-0.112862
-0.109014
-0.105332
-0.0997559
-0.0965711
-0.0907461
-0.0876711
-0.0827474
-0.0795424
-0.0759073
-0.0727793
-0.0703293
-0.0677068
-0.0662125
-0.0644829
-0.0637744
-0.0631727
-0.0631727
-0.0637744
-0.0644829
-0.0662127
-0.0677069
-0.0703295
-0.0727794
-0.0759074
-0.0795425
-0.0827475
-0.0876714
-0.0907462
-0.0965715
-0.0997562
-0.105333
-0.109015
-0.112863
-0.116591
-0.118274
-0.120585
-0.121811
-0.12334
-0.127162
-0.133874
-0.143189
-0.15822
-0.1726
-0.182162
-0.185653
-0.171804
-0.143071
-0.106481
-0.0671285
-0.03967
-0.0233025
-0.00507507
0.0184568
0.046845
0.0698119
0.0707562
0.0505283
0.0241408
0.0040077
-0.00346687
0.0011402
0.0106475
0.0148938
0.00762312
-0.00344551
-0.00389517
-0.00520693
-0.00612201
0.00604761
0.0156538
0.0130398
0.00386804
-0.00222701
0.000492149
0.0147787
0.0407271
0.068078
0.0771893
0.0613316
0.0330949
0.00641495
-0.0102275
-0.0214153
-0.0432646
-0.0767833
-0.11337
-0.147158
-0.165443
-0.166806
-0.158219
-0.142038
-0.127965
-0.11846
-0.111959
-0.110126
-0.110537
-0.111843
-0.113481
-0.115993
-0.116434
-0.118151
-0.117997
-0.117388
-0.117198
-0.114433
-0.113964
-0.110264
-0.109216
-0.105718
-0.104201
-0.101494
-0.0999303
-0.0981655
-0.0970159
-0.0961591
-0.0957397
-0.0957396
-0.0961593
-0.097016
-0.0981657
-0.0999306
-0.101494
-0.104201
-0.105719
-0.109216
-0.110265
-0.113965
-0.114434
-0.117199
-0.117389
-0.117998
-0.118152
-0.116434
-0.115994
-0.113481
-0.111844
-0.110538
-0.110126
-0.111959
-0.118461
-0.127965
-0.142038
-0.15822
-0.166807
-0.165444
-0.147159
-0.11337
-0.0767825
-0.043263
-0.0214135
-0.0102276
0.00641383
0.0330949
0.0613339
0.0771937
0.0680814
0.0407274
0.0147768
0.00048958
-0.00222948
0.00386705
0.0130415
0.0156567
0.00604804
-0.00612498
-0.005209
-0.0053562
-0.00700261
0.00429847
0.0144229
0.0140928
0.00722005
0.000565006
-0.00163554
0.00644274
0.0304986
0.0621242
0.0792676
0.0710172
0.0456472
0.0176966
-7.44558e-05
-0.0098447
-0.0261951
-0.053762
-0.0896406
-0.125064
-0.145874
-0.150728
-0.143189
-0.127965
-0.113274
-0.100729
-0.0932138
-0.0905614
-0.0910605
-0.0938478
-0.0976997
-0.102125
-0.105171
-0.109459
-0.110931
-0.1137
-0.114683
-0.115357
-0.116534
-0.115616
-0.11685
-0.115277
-0.116223
-0.114727
-0.115257
-0.114193
-0.114406
-0.113871
-0.113919
-0.113919
-0.113871
-0.114406
-0.114194
-0.115258
-0.114728
-0.116223
-0.115277
-0.11685
-0.115616
-0.116534
-0.115358
-0.114684
-0.113701
-0.110932
-0.10946
-0.105172
-0.102126
-0.0977001
-0.093848
-0.0910605
-0.0905614
-0.0932135
-0.100729
-0.113274
-0.127965
-0.143189
-0.150728
-0.145875
-0.125065
-0.0896406
-0.0537608
-0.0261936
-0.00984359
-7.46218e-05
0.0176957
0.0456474
0.0710198
0.079272
0.0621272
0.0304977
0.00643977
-0.0016378
0.000563726
0.00721961
0.0140942
0.0144256
0.00429887
-0.00700589
-0.00535854
-0.00396081
-0.00568566
0.00217872
0.0112144
0.014286
0.0109528
0.00391041
-0.00238542
0.000468792
0.0208249
0.0529105
0.0767606
0.0783831
0.0579283
0.0275246
0.00612587
-0.00296401
-0.0141869
-0.0361276
-0.0690294
-0.104672
-0.129467
-0.139049
-0.133873
-0.11846
-0.100729
-0.0855717
-0.075731
-0.0704836
-0.0699697
-0.071648
-0.0751891
-0.0794621
-0.0835041
-0.0885088
-0.0917172
-0.0965721
-0.0990467
-0.102876
-0.105118
-0.107451
-0.109637
-0.110647
-0.112605
-0.112806
-0.114303
-0.114185
-0.115097
-0.114971
-0.115274
-0.115274
-0.114971
-0.115097
-0.114186
-0.114303
-0.112806
-0.112605
-0.110647
-0.109637
-0.107452
-0.105118
-0.102876
-0.0990467
-0.0965723
-0.0917172
-0.0885089
-0.0835042
-0.0794621
-0.0751892
-0.071648
-0.0699696
-0.0704832
-0.0757306
-0.0855711
-0.100729
-0.11846
-0.133874
-0.13905
-0.129468
-0.104673
-0.0690292
-0.0361263
-0.0141855
-0.00296372
0.00612485
0.027524
0.0579297
0.0783862
0.0767643
0.0529123
0.0208232
0.000465458
-0.00238739
0.00391014
0.0109531
0.0142871
0.0112163
0.00217893
-0.00568845
-0.00396283
-0.00108105
-0.0023678
-0.000345199
0.00649066
0.014007
0.0147098
0.00720455
-0.0020326
-0.00325035
0.0122972
0.0424761
0.0715871
0.0827264
0.0676677
0.036282
0.0122036
0.00224286
-0.00636448
-0.0229856
-0.0522125
-0.088491
-0.116941
-0.130291
-0.127161
-0.111959
-0.0932138
-0.075731
-0.0623414
-0.0544364
-0.0514176
-0.0509931
-0.053655
-0.0570098
-0.0610515
-0.0658059
-0.0695876
-0.0744347
-0.0776323
-0.0818926
-0.0845757
-0.0879088
-0.0901937
-0.0925231
-0.0944312
-0.0958888
-0.097349
-0.0981557
-0.0990746
-0.0994248
-0.0997382
-0.0997383
-0.0994248
-0.0990747
-0.0981557
-0.0973491
-0.095889
-0.0944313
-0.0925234
-0.0901939
-0.087909
-0.0845759
-0.0818928
-0.0776325
-0.0744349