/*--------------------------------*- C++ -*----------------------------------*\
  =========                 |
  \\      /  F ield         | OpenFOAM: The Open Source CFD Toolbox
   \\    /   O peration     | Website:  https://openfoam.org
    \\  /    A nd           | Version:  10
     \\/     M anipulation  |
\*---------------------------------------------------------------------------*/
FoamFile
{
    format      ascii;
    class       volScalarField;
    location    "2";
    object      h;
}
// * * * * * * * * * * * * * * * * * * * * * * * * * * * * * * * * * * * * * //

dimensions      [0 1 0 0 0 0 0];

internalField   nonuniform List<scalar> 
10000
(
2.85334e-136
4.40245e-134
6.57022e-132
9.53907e-130
1.34645e-127
1.84644e-125
2.4583e-123
3.17513e-121
3.97539e-119
4.82094e-117
5.65776e-115
6.41982e-113
7.03645e-111
7.44216e-109
7.58746e-107
7.44828e-105
7.03167e-103
6.37605e-101
5.5456e-99
4.61977e-97
3.6804e-95
2.79933e-93
2.02917e-91
1.39912e-89
9.15707e-88
5.67593e-86
3.32371e-84
1.83373e-82
9.5034e-81
4.61123e-79
2.08712e-77
8.77566e-76
3.41182e-74
1.21999e-72
3.98775e-71
1.18307e-69
3.15901e-68
7.51572e-67
1.57371e-65
2.85584e-64
4.40356e-63
5.61922e-62
5.71899e-61
4.39333e-60
2.32757e-59
7.1837e-59
9.06094e-59
9.4385e-59
9.48911e-59
9.49413e-59
9.49412e-59
9.48896e-59
9.43739e-59
9.05525e-59
7.16701e-59
2.31089e-59
4.33646e-60
5.6088e-61
5.47295e-62
4.25741e-63
2.73956e-64
1.49723e-65
7.08869e-67
2.95252e-68
1.09525e-69
3.65519e-71
1.1067e-72
3.06178e-74
7.78751e-76
1.83069e-77
3.99622e-79
8.13388e-81
1.54939e-82
2.77123e-84
4.66803e-86
7.42542e-88
1.11818e-89
1.59768e-91
2.17051e-93
2.8091e-95
3.46962e-97
4.09664e-99
4.63101e-101
5.01946e-103
5.22346e-105
5.22558e-107
5.03158e-109
4.66832e-111
4.17798e-113
3.61043e-115
3.01548e-117
2.43642e-119
1.90599e-121
1.44484e-123
1.06217e-125
7.5781e-128
5.25091e-130
3.536e-132
2.31568e-134
1.46643e-136
4.40245e-134
6.76282e-132
1.00472e-129
1.45197e-127
2.03976e-125
2.78362e-123
3.68759e-121
4.73861e-119
5.90192e-117
7.1189e-115
8.30873e-113
9.37481e-111
1.0216e-108
1.07411e-106
1.08844e-104
1.06182e-102
9.96034e-101
8.97252e-99
7.75145e-97
6.41283e-95
5.07271e-93
3.83028e-91
2.75578e-89
1.88556e-87
1.22436e-85
7.52773e-84
4.37145e-82
2.39119e-80
1.22836e-78
5.90643e-77
2.64853e-75
1.10298e-73
4.24605e-72
1.50293e-70
4.86146e-69
1.42682e-67
3.76783e-66
8.86238e-65
1.834e-63
3.28817e-62
5.00758e-61
6.30915e-60
6.33838e-59
4.80599e-58
2.51417e-57
7.67852e-57
9.70091e-57
1.01134e-56
1.01695e-56
1.01751e-56
1.01751e-56
1.01693e-56
1.01122e-56
9.69502e-57
7.66145e-57
2.4971e-57
4.7471e-58
6.2227e-59
6.15345e-60
4.84988e-61
3.161e-62
1.74926e-63
8.38318e-65
3.53323e-66
1.32584e-67
4.47458e-69
1.36964e-70
3.82963e-72
9.84162e-74
2.33696e-75
5.15158e-77
1.05861e-78
2.03534e-80
3.67357e-82
6.24297e-84
1.00167e-85
1.52115e-87
2.19138e-89
3.00106e-91
3.91455e-93
4.87213e-95
5.79575e-97
6.59979e-99
7.20461e-101
7.54993e-103
7.60471e-105
7.37143e-107
6.88404e-109
6.20045e-111
5.39178e-113
4.53092e-115
3.68285e-117
2.89802e-119
2.20952e-121
1.63348e-123
1.17186e-125
8.1639e-128
5.52683e-130
3.63828e-132
2.31567e-134
6.57022e-132
1.00472e-129
1.48573e-127
2.13685e-125
2.98722e-123
4.05618e-121
5.34583e-119
6.83334e-117
8.46502e-115
1.01541e-112
1.17841e-110
1.32189e-108
1.43192e-106
1.49633e-104
1.50679e-102
1.4605e-100
1.36097e-98
1.2177e-96
1.04468e-94
8.58112e-93
6.73822e-91
5.04964e-89
3.60503e-87
2.44708e-85
1.57603e-83
9.60879e-82
5.53194e-80
2.9992e-78
1.52669e-76
7.27218e-75
3.22956e-73
1.33162e-71
5.07394e-70
1.77711e-68
5.6862e-67
1.6503e-65
4.30798e-64
1.00132e-62
2.04695e-61
3.62405e-60
5.44813e-59
6.77373e-58
6.71369e-57
5.02175e-56
2.59263e-55
7.83226e-55
9.91188e-55
1.03423e-54
1.04016e-54
1.04077e-54
1.04077e-54
1.04015e-54
1.03411e-54
9.90607e-55
7.81561e-55
2.57598e-55
4.96361e-56
6.59785e-57
6.61555e-58
5.2856e-59
3.49116e-60
1.95718e-61
9.49878e-63
4.05288e-64
1.53911e-65
5.25501e-67
1.6268e-68
4.59895e-70
1.19457e-71
2.86628e-73
6.38278e-75
1.32462e-76
2.57141e-78
4.68482e-80
8.03458e-82
1.30067e-83
1.99245e-85
2.89478e-87
3.99728e-89
5.25628e-91
6.59386e-93
7.90452e-95
9.06907e-97
9.97323e-99
1.05266e-100
1.06777e-102
1.04215e-104
9.79802e-107
8.88324e-109
7.77448e-111
6.57443e-113
5.37688e-115
4.25662e-117
3.26456e-119
2.42745e-121
1.75135e-123
1.22688e-125
8.35106e-128
5.52683e-130
3.53599e-132
9.53907e-130
1.45197e-127
2.13685e-125
3.05831e-123
4.25396e-121
5.74658e-119
7.53386e-117
9.57828e-115
1.17998e-112
1.40742e-110
1.62386e-108
1.81072e-106
1.94946e-104
2.02439e-102
2.02544e-100
1.95027e-98
1.80508e-96
1.60384e-94
1.36615e-92
1.11396e-90
8.68145e-89
6.45569e-87
4.57229e-85
3.07837e-83
1.96601e-81
1.18833e-79
6.78086e-78
3.64287e-76
1.83697e-74
8.66591e-73
3.81036e-71
1.55507e-69
5.86311e-68
2.03129e-66
6.42705e-65
1.84389e-63
4.75641e-62
1.09207e-60
2.20445e-59
3.85245e-58
5.71454e-57
7.00818e-56
6.84959e-55
5.05182e-54
2.57287e-53
7.68578e-53
9.74338e-53
1.01757e-52
1.02362e-52
1.02425e-52
1.02424e-52
1.0236e-52
1.01745e-52
9.73786e-53
7.67018e-53
2.55726e-53
4.99664e-54
6.73803e-55
6.85356e-56
5.55331e-57
3.7187e-58
2.11282e-59
1.03884e-60
4.48891e-62
1.7258e-63
5.96329e-65
1.86765e-66
5.33985e-68
1.40236e-69
3.40104e-71
7.6529e-73
1.60439e-74
3.14542e-76
5.78601e-78
1.00166e-79
1.63641e-81
2.52919e-83
3.70667e-85
5.16197e-87
6.8442e-89
8.65549e-91
1.04581e-92
1.20916e-94
1.33975e-96
1.42452e-98
1.45539e-100
1.43048e-102
1.35417e-104
1.23601e-106
1.08887e-108
9.26731e-111
7.62707e-113
6.07528e-115
4.68752e-117
3.50617e-119
2.54428e-121
1.79248e-123
1.22688e-125
8.1639e-128
5.25089e-130
1.34645e-127
2.03976e-125
2.98722e-123
4.25396e-121
5.88668e-119
7.91037e-117
1.03147e-114
1.30413e-112
1.59751e-110
1.89435e-108
2.17265e-106
2.40787e-104
2.57613e-102
2.65795e-100
2.64179e-98
2.52654e-96
2.32221e-94
2.04861e-92
1.73223e-90
1.40184e-88
1.08407e-86
7.99745e-85
5.61811e-83
3.75081e-81
2.37485e-79
1.42274e-77
8.04458e-76
4.28131e-74
2.13812e-72
9.98655e-71
4.34622e-69
1.75512e-67
6.5457e-66
2.24248e-64
7.01371e-63
1.98837e-61
5.06646e-60
1.14862e-58
2.28853e-57
3.94598e-56
5.77289e-55
6.98002e-54
6.72407e-53
4.88758e-52
2.45442e-51
7.24767e-51
9.20433e-51
9.62185e-51
9.68122e-51
9.68746e-51
9.68744e-51
9.68108e-51
9.62082e-51
9.1993e-51
7.23364e-51
2.44039e-51
4.8373e-52
6.62087e-53
6.83476e-54
5.6191e-55
3.81648e-56
2.19851e-57
1.09558e-58
4.79625e-60
1.86747e-61
6.53279e-63
2.07065e-64
5.98953e-66
1.59087e-67
3.90091e-69
8.87216e-71
1.87948e-72
3.7223e-74
6.91514e-76
1.20871e-77
1.99326e-79
3.10902e-81
4.59722e-83
6.45804e-85
8.63556e-87
1.10117e-88
1.34128e-90
1.56307e-92
1.74527e-94
1.86971e-96
1.92432e-98
1.90502e-100
1.8161e-102
1.66906e-104
1.48028e-106
1.26816e-108
1.05044e-110
8.41999e-113
6.53676e-115
4.91892e-117
3.59059e-119
2.54428e-121
1.75135e-123
1.17186e-125
7.57806e-128
1.84644e-125
2.78362e-123
4.05618e-121
5.74658e-119
7.91037e-117
1.05725e-114
1.37098e-112
1.72356e-110
2.09903e-108
2.47424e-106
2.8204e-104
3.10617e-102
3.30186e-100
3.38427e-98
3.34094e-96
3.173e-94
2.89559e-92
2.53575e-90
2.12802e-88
1.70885e-86
1.31101e-84
9.5928e-83
6.68239e-81
4.42295e-79
2.77564e-77
1.64771e-75
9.22936e-74
4.86451e-72
2.40528e-70
1.11197e-68
4.78847e-67
1.91277e-65
7.05403e-64
2.38883e-62
7.38286e-61
2.06743e-59
5.20151e-58
1.16391e-56
2.28791e-55
3.89046e-54
5.61081e-53
6.68517e-52
6.3443e-51
4.54258e-50
2.24819e-49
6.56013e-49
8.34636e-49
8.7337e-49
8.78967e-49
8.79564e-49
8.79563e-49
8.78954e-49
8.73278e-49
8.34197e-49
6.54804e-49
2.2361e-49
4.49865e-50
6.2527e-51
6.55417e-52
5.4699e-53
3.76996e-54
2.20288e-55
1.11307e-56
4.93882e-58
1.94828e-59
6.90251e-61
2.21497e-62
6.4842e-64
1.74243e-65
4.32116e-67
9.93675e-69
2.12767e-70
4.25796e-72
7.99093e-74
1.41061e-75
2.34872e-77
3.69795e-79
5.51826e-81
7.82129e-83
1.05498e-84
1.35671e-86
1.66628e-88
1.95755e-90
2.20305e-92
2.37838e-94
2.46633e-96
2.45961e-98
2.36171e-100
2.1858e-102
1.95192e-104
1.68349e-106
1.40365e-108
1.13238e-110
8.84657e-113
6.69818e-115
4.91892e-117
3.50617e-119
2.42745e-121
1.63348e-123
1.06216e-125
2.4583e-123
3.68759e-121
5.34583e-119
7.53386e-117
1.03147e-114
1.37098e-112
1.76773e-110
2.20945e-108
2.67474e-106
3.1336e-104
3.54964e-102
3.88417e-100
4.10165e-98
4.17557e-96
4.09349e-94
3.86e-92
3.49675e-90
3.03918e-88
2.53082e-86
2.01619e-84
1.53419e-82
1.11318e-80
7.68773e-79
5.04332e-77
3.13614e-75
1.84428e-73
1.02308e-71
5.33887e-70
2.61286e-68
1.19523e-66
5.09125e-65
2.011e-63
7.33095e-62
2.45315e-60
7.48885e-59
2.07064e-57
5.14174e-56
1.13508e-54
2.20033e-53
3.68809e-52
5.24078e-51
6.15007e-50
5.74664e-49
4.05095e-48
1.9749e-47
5.69241e-47
7.25591e-47
7.60064e-47
7.65129e-47
7.65678e-47
7.65677e-47
7.65118e-47
7.59986e-47
7.25224e-47
5.68243e-47
1.96492e-47
4.01419e-48
5.66874e-49
6.0368e-50
5.11693e-51
3.58047e-52
2.1232e-53
1.08827e-54
4.89625e-56
1.9577e-57
7.02722e-59
2.28382e-60
6.76875e-62
1.84082e-63
4.61866e-65
1.07418e-66
2.32551e-68
4.70401e-70
8.92051e-72
1.59077e-73
2.67498e-75
4.25237e-77
6.40538e-79
9.162e-81
1.24688e-82
1.6175e-84
2.0035e-86
2.37327e-88
2.69256e-90
2.92986e-92
3.0617e-94
3.07641e-96
2.97576e-98
2.77397e-100
2.49462e-102
2.16639e-104
1.81845e-106
1.47668e-108
1.16108e-110
8.84657e-113
6.53676e-115
4.68752e-117
3.26456e-119
2.20952e-121
1.44484e-123
3.17513e-121
4.73861e-119
6.83334e-117
9.57828e-115
1.30413e-112
1.72356e-110
2.20945e-108
2.74509e-106
3.30288e-104
3.84526e-102
4.32779e-100
4.70444e-98
4.93423e-96
4.98827e-94
4.85535e-92
4.5449e-90
4.08625e-88
3.52412e-86
2.91137e-84
2.30046e-82
1.73584e-80
1.24865e-78
8.54695e-77
5.55594e-75
3.42254e-73
1.9933e-71
1.09478e-69
5.65465e-68
2.73829e-66
1.23902e-64
5.21884e-63
2.03767e-61
7.33994e-60
2.42608e-58
7.31261e-57
1.99555e-55
4.88858e-54
1.0642e-52
2.03337e-51
3.35787e-50
4.69891e-49
5.42801e-48
4.99105e-47
3.46188e-46
1.6616e-45
4.7292e-45
6.03968e-45
6.33365e-45
6.37759e-45
6.38243e-45
6.38242e-45
6.3775e-45
6.33302e-45
6.03674e-45
4.72133e-45
1.65373e-45
3.43246e-46
4.92765e-47
5.33423e-48
4.59462e-49
3.26573e-50
1.96626e-51
1.02283e-52
4.6683e-54
1.8927e-55
6.88624e-57
2.26751e-58
6.80639e-60
1.87405e-61
4.75876e-63
1.11973e-64
2.45174e-66
5.01427e-68
9.61129e-70
1.73191e-71
2.94203e-73
4.72334e-75
7.18362e-77
1.0372e-78
1.42451e-80
1.86448e-82
2.32957e-84
2.78303e-86
3.18368e-88
3.49236e-90
3.6784e-92
3.72466e-94
3.63001e-96
3.40882e-98
3.08765e-100
2.70028e-102
2.28222e-104
1.86578e-106
1.47668e-108
1.13238e-110
8.41999e-113
6.07528e-115
4.25662e-117
2.89802e-119
1.90598e-121
3.97539e-119
5.90192e-117
8.46502e-115
1.17998e-112
1.59751e-110
2.09903e-108
2.67474e-106
3.30288e-104
3.94913e-102
4.56808e-100
5.10741e-98
5.51434e-96
5.74353e-94
5.76504e-92
5.57034e-90
5.17499e-88
4.61683e-86
3.95014e-84
3.23671e-82
2.53611e-80
1.89718e-78
1.35263e-76
9.17434e-75
5.9079e-73
3.60426e-71
2.07831e-69
1.12981e-67
5.77414e-66
2.76584e-64
1.23751e-62
5.1524e-61
1.98782e-59
7.07264e-58
2.30816e-56
6.86638e-55
1.84852e-53
4.46539e-52
9.58111e-51
1.8035e-49
2.93268e-48
4.0392e-47
4.59035e-46
4.15103e-45
2.83134e-44
1.33718e-43
3.75657e-43
4.80695e-43
5.04682e-43
5.08331e-43
5.08741e-43
5.0874e-43
5.08324e-43
5.04632e-43
4.8047e-43
3.75065e-43
1.33126e-43
2.80886e-44
4.10172e-45
4.51611e-46
3.95517e-47
2.85716e-48
1.74756e-49
9.23059e-51
4.27583e-52
1.75866e-53
6.48833e-55
2.16555e-56
6.58609e-58
1.83662e-59
4.72166e-61
1.12441e-62
2.49085e-64
5.15229e-66
9.98525e-68
1.81868e-69
3.12181e-71
5.06309e-73
7.77681e-75
1.13371e-76
1.57173e-78
2.07606e-80
2.61716e-82
3.15389e-84
3.63866e-86
4.02462e-88
4.27339e-90
4.36139e-92
4.28343e-94
4.0528e-96
3.69804e-98
3.25742e-100
2.7725e-102
2.28222e-104
1.81845e-106
1.40365e-108
1.05044e-110
7.62707e-113
5.37688e-115
3.68285e-117
2.43641e-119
4.82094e-117
7.1189e-115
1.01541e-112
1.40742e-110
1.89435e-108
2.47424e-106
3.1336e-104
3.84526e-102
4.56808e-100
5.2492e-98
5.82924e-96
6.24996e-94
6.46332e-92
6.44004e-90
6.17578e-88
5.69315e-86
5.03882e-84
4.27606e-82
3.47442e-80
2.69893e-78
2.0011e-76
1.41373e-74
9.49891e-73
6.05793e-71
3.65911e-69
2.08837e-67
1.12333e-65
5.67877e-64
2.68975e-62
1.18959e-60
4.89404e-59
1.865e-57
6.55166e-56
2.11021e-54
6.1928e-53
1.64395e-51
3.91405e-50
8.27322e-49
1.53338e-47
2.4539e-46
3.32451e-45
3.71466e-44
3.30151e-43
2.21305e-42
1.02782e-41
2.84893e-41
3.65283e-41
3.83985e-41
3.86884e-41
3.87215e-41
3.87214e-41
3.86878e-41
3.83948e-41
3.65119e-41
2.84468e-41
1.02357e-41
2.19667e-42
3.26492e-43
3.65854e-44
3.25982e-45
2.3947e-46
1.48877e-47
7.98896e-49
3.75781e-50
1.56871e-51
5.87139e-53
1.98716e-54
6.12584e-56
1.73083e-57
4.50668e-59
1.08656e-60
2.43606e-62
5.09806e-64
9.99274e-66
1.84021e-67
3.1928e-69
5.2325e-71
8.11902e-73
1.19535e-74
1.67323e-76
2.23094e-78
2.83824e-80
3.45094e-82
4.01612e-84
4.47996e-86
4.79641e-88
4.93488e-90
4.88504e-92
4.65775e-94
4.28213e-96
3.79975e-98
3.25742e-100
2.70028e-102
2.16639e-104
1.68349e-106
1.26816e-108
9.26731e-111
6.57443e-113
4.53092e-115
3.01547e-117
5.65776e-115
8.30873e-113
1.17841e-110
1.62386e-108
2.17265e-106
2.8204e-104
3.54964e-102
4.32779e-100
5.10741e-98
5.82924e-96
6.42841e-94
6.84325e-92
7.02506e-90
6.94714e-88
6.61064e-86
6.04569e-84
5.30724e-82
4.46612e-80
3.5976e-78
2.76987e-76
2.03499e-74
1.4242e-72
9.47701e-71
5.98397e-69
3.5775e-67
2.02029e-65
1.07492e-63
5.37331e-62
2.51573e-60
1.0994e-58
4.46751e-57
1.6809e-55
5.82774e-54
1.8517e-52
5.35835e-51
1.40193e-49
3.28808e-48
6.84301e-47
1.24811e-45
1.96452e-44
2.61637e-43
2.87242e-42
2.50747e-41
1.65069e-40
7.53444e-40
2.05964e-39
2.64624e-39
2.78536e-39
2.80734e-39
2.8099e-39
2.8099e-39
2.8073e-39
2.7851e-39
2.64511e-39
2.05673e-39
7.5054e-40
1.63932e-40
2.48161e-41
2.83198e-42
2.56885e-43
1.92023e-44
1.21413e-45
6.62265e-47
3.16489e-48
1.34163e-49
5.09669e-51
1.74998e-52
5.47053e-54
1.56673e-55
4.1333e-57
1.00931e-58
2.29101e-60
4.8524e-62
9.6228e-64
1.79228e-65
3.1441e-67
5.20821e-69
8.16606e-71
1.21454e-72
1.71698e-74
2.31143e-76
2.96834e-78
3.64227e-80
4.27675e-82
4.81234e-84
5.19615e-86
5.39058e-88
5.37943e-90
5.16975e-92
4.78959e-94
4.28213e-96
3.69804e-98
3.08765e-100
2.49462e-102
1.95192e-104
1.48028e-106
1.08887e-108
7.77448e-111
5.39178e-113
3.61042e-115
6.41982e-113
9.37481e-111
1.32189e-108
1.81072e-106
2.40787e-104
3.10617e-102
3.88417e-100
4.70444e-98
5.51434e-96
6.24996e-94
6.84325e-92
7.23153e-90
7.36786e-88
7.22988e-86
6.82512e-84
6.19097e-82
5.38925e-80
4.49607e-78
3.58966e-76
2.73858e-74
1.99315e-72
1.38147e-70
9.1014e-69
5.68806e-67
3.36478e-65
1.87956e-63
9.88857e-62
4.8861e-60
2.26042e-58
9.75705e-57
3.91464e-55
1.45362e-53
4.97164e-52
1.55763e-50
4.44232e-49
1.14492e-47
2.64384e-46
5.41439e-45
9.71235e-44
1.50264e-42
1.96598e-41
2.11928e-40
1.81577e-39
1.17309e-38
5.25883e-38
1.41714e-37
1.82458e-37
1.92316e-37
1.93905e-37
1.94093e-37
1.94093e-37
1.93902e-37
1.92298e-37
1.82383e-37
1.41526e-37
5.24e-38
1.1656e-38
1.79838e-39
2.09154e-40
1.93273e-41
1.47105e-42
9.46539e-44
5.25133e-45
2.55107e-46
1.09874e-47
4.23862e-49
1.47718e-50
4.68478e-52
1.36057e-53
3.63834e-55
9.00189e-57
2.06951e-58
4.4378e-60
8.90691e-62
1.67841e-63
2.9779e-65
4.98758e-67
7.90439e-69
1.18795e-70
1.69652e-72
2.30658e-74
2.99077e-76
3.70438e-78
4.38963e-80
4.98358e-82
5.42803e-84
5.6791e-86
5.71444e-88
5.53625e-90
5.16975e-92
4.65775e-94
4.0528e-96
3.40882e-98
2.77397e-100
2.1858e-102
1.66906e-104
1.23601e-106
8.88324e-109
6.20045e-111
4.17796e-113
7.03645e-111
1.0216e-108
1.43192e-106
1.94946e-104
2.57613e-102
3.30186e-100
4.10165e-98
4.93423e-96
5.74353e-94
6.46332e-92
7.02506e-90
7.36786e-88
7.4488e-86
7.25133e-84
6.78958e-82
6.10714e-80
5.27049e-78
4.35806e-76
3.44778e-74
2.60569e-72
1.87815e-70
1.28883e-68
8.4043e-67
5.19709e-65
3.04099e-63
1.67969e-61
8.73513e-60
4.26482e-58
1.94878e-56
8.30529e-55
3.28857e-53
1.20463e-51
4.06251e-50
1.25441e-48
3.52409e-47
8.94221e-46
2.03189e-44
4.09227e-43
7.21493e-42
1.09647e-40
1.40832e-39
1.48954e-38
1.25164e-37
7.92989e-37
3.48893e-36
9.26399e-36
1.1953e-35
1.26173e-35
1.27266e-35
1.27398e-35
1.27398e-35
1.27264e-35
1.26162e-35
1.19483e-35
9.25241e-36
3.47735e-36
7.883e-37
1.24054e-37
1.47146e-38
1.3862e-39
1.07503e-40
7.044e-42
3.97726e-43
1.96527e-44
8.60467e-46
3.37266e-47
1.19362e-48
3.84229e-50
1.1321e-51
3.07e-53
7.69929e-55
1.79345e-56
3.89515e-58
7.91506e-60
1.50952e-61
2.70969e-63
4.5901e-65
7.35509e-67
1.11731e-68
1.61237e-70
2.21453e-72
2.89995e-74
3.62664e-76
4.33801e-78
4.97022e-80
5.46195e-82
5.76449e-84
5.84976e-86
5.71444e-88
5.37943e-90
4.88504e-92
4.28343e-94
3.63001e-96
2.97576e-98
2.36171e-100
1.8161e-102
1.35417e-104
9.79802e-107
6.88404e-109
4.66831e-111
7.44216e-109
1.07411e-106
1.49633e-104
2.02439e-102
2.65795e-100
3.38427e-98
4.17557e-96
4.98827e-94
5.76504e-92
6.44004e-90
6.94714e-88
7.22988e-86
7.25133e-84
7.00157e-82
6.5008e-80
5.79704e-78
4.95856e-76
4.06279e-74
3.18406e-72
2.38318e-70
1.70071e-68
1.15514e-66
7.45316e-65
4.5589e-63
2.63773e-61
1.44014e-59
7.40029e-58
3.56874e-56
1.61004e-54
6.77185e-53
2.64512e-51
9.55386e-50
3.17537e-48
9.65815e-47
2.67134e-45
6.66977e-44
1.49039e-42
2.95009e-41
5.10863e-40
7.62072e-39
9.60185e-38
9.95655e-37
8.19873e-36
5.08975e-35
2.19618e-34
5.7431e-34
7.42635e-34
7.85124e-34
7.9227e-34
7.93153e-34
7.93152e-34
7.92259e-34
7.85056e-34
7.42358e-34
5.73637e-34
2.18945e-34
5.06199e-35
8.13159e-36
9.84478e-37
9.46217e-38
7.48243e-39
4.99615e-40
2.87291e-41
1.44483e-42
6.4347e-44
2.564e-45
9.21993e-47
3.01399e-48
9.01386e-50
2.47989e-51
6.30692e-53
1.48916e-54
3.27703e-56
6.74445e-58
1.30228e-59
2.36592e-61
4.05481e-63
6.57145e-65
1.00933e-66
1.47225e-68
2.04328e-70
2.703e-72
3.41392e-74
4.12308e-76
4.76849e-78
5.28839e-80
5.63129e-82
5.76449e-84
5.6791e-86
5.39058e-88
4.93488e-90
4.36139e-92
3.72466e-94
3.07641e-96
2.45961e-98
1.90502e-100
1.43048e-102
1.04215e-104
7.37143e-107
5.03157e-109
7.58746e-107
1.08844e-104
1.50679e-102
2.02544e-100
2.64179e-98
3.34094e-96
4.09349e-94
4.85535e-92
5.57034e-90
6.17578e-88
6.61064e-86
6.82512e-84
6.78958e-82
6.5008e-80
5.98387e-78
5.28881e-76
4.48264e-74
3.63842e-72
2.82398e-70
2.09268e-68
1.47813e-66
9.93387e-65
6.33996e-63
3.83461e-61
2.19307e-59
1.18312e-57
6.0049e-56
2.85911e-54
1.273e-52
5.28181e-51
2.03425e-49
7.2412e-48
2.3707e-46
7.09899e-45
1.932e-43
4.74363e-42
1.04173e-40
2.0252e-39
3.44214e-38
5.03639e-37
6.21998e-36
6.31807e-35
5.09398e-34
3.09598e-33
1.30911e-32
3.36981e-32
4.36718e-32
4.62467e-32
4.66897e-32
4.67456e-32
4.67455e-32
4.6689e-32
4.62428e-32
4.36562e-32
3.36611e-32
1.30541e-32
3.08045e-33
5.05558e-34
6.25268e-35
6.1364e-36
4.95182e-37
3.37189e-38
1.976e-39
1.01211e-40
4.5879e-42
1.85958e-43
6.79808e-45
2.25799e-46
6.85782e-48
1.91507e-49
4.9413e-51
1.18315e-52
2.63916e-54
5.5035e-56
1.0763e-57
1.97971e-59
3.43392e-61
5.63051e-63
8.74672e-65
1.28997e-66
1.80961e-68
2.41898e-70
3.08638e-72
3.76452e-74
4.39593e-76
4.92116e-78
5.28839e-80
5.46195e-82
5.42803e-84
5.19615e-86
4.79641e-88
4.27339e-90
3.6784e-92
3.0617e-94
2.46633e-96
1.92432e-98
1.45539e-100
1.06777e-102
7.60471e-105
5.22556e-107
7.44828e-105
1.06182e-102
1.4605e-100
1.95027e-98
2.52654e-96
3.173e-94
3.86e-92
4.5449e-90
5.17499e-88
5.69315e-86
6.04569e-84
6.19097e-82
6.10714e-80
5.79704e-78
5.28881e-76
4.63191e-74
3.88908e-72
3.1262e-70
2.40233e-68
1.76202e-66
1.23146e-64
8.18631e-63
5.16619e-61
3.08863e-59
1.74541e-57
9.30051e-56
4.6606e-54
2.18999e-52
9.61883e-51
3.93511e-49
1.49365e-47
5.23723e-46
1.68804e-44
4.97361e-43
1.33105e-41
3.21175e-40
6.927e-39
1.32167e-37
2.20316e-36
3.15927e-35
3.82119e-34
3.79884e-33
2.99612e-32
1.78112e-31
7.37417e-31
1.86751e-30
2.42572e-30
2.57326e-30
2.59924e-30
2.6026e-30
2.6026e-30
2.59921e-30
2.57305e-30
2.4249e-30
1.86559e-30
7.35503e-31
1.77292e-31
2.9754e-32
3.7627e-33
3.77391e-34
3.11033e-35
2.1616e-36
1.29194e-37
6.74432e-39
3.11378e-40
1.28462e-41
4.77713e-43
1.61314e-44
4.97808e-46
1.41176e-47
3.6974e-49
8.98189e-51
2.03175e-52
4.29469e-54
8.5101e-56
1.58541e-57
2.78421e-59
4.62038e-61
7.26179e-63
1.08319e-64
1.53637e-66
2.07587e-68
2.67638e-70
3.29775e-72
3.88913e-74
4.39593e-76
4.76849e-78
4.97022e-80
4.98358e-82
4.81234e-84
4.47996e-86
4.02462e-88
3.49236e-90
2.92986e-92
2.37838e-94
1.86971e-96
1.42452e-98
1.05266e-100
7.54993e-103
5.22344e-105
7.03167e-103
9.96034e-101
1.36097e-98
1.80508e-96
2.32221e-94
2.89559e-92
3.49675e-90
4.08625e-88
4.61683e-86
5.03882e-84
5.30724e-82
5.38925e-80
5.27049e-78
4.95856e-76
4.48264e-74
3.88908e-72
3.23389e-70
2.57372e-68
1.95755e-66
1.42067e-64
9.8212e-63
6.45572e-61
4.02705e-59
2.37893e-57
1.32784e-55
6.98575e-54
3.45479e-52
1.60141e-50
6.93526e-49
2.79617e-47
1.04544e-45
3.60881e-44
1.14448e-42
3.31592e-41
8.72089e-40
2.06659e-38
4.37427e-37
8.18499e-36
1.33705e-34
1.87745e-33
2.22191e-32
2.15984e-31
1.66471e-30
9.67021e-30
3.91662e-29
9.75301e-29
1.26974e-28
1.34949e-28
1.36389e-28
1.36579e-28
1.36579e-28
1.36387e-28
1.34939e-28
1.26933e-28
9.74371e-29
3.90731e-29
9.62958e-30
1.65418e-30
2.14102e-31
2.19668e-32
1.8507e-33
1.31381e-34
8.015e-36
4.26756e-37
2.00818e-38
8.43855e-40
3.19415e-41
1.0972e-42
3.44232e-44
9.91928e-46
2.63827e-47
6.50539e-49
1.49297e-50
3.20029e-52
6.42809e-54
1.21338e-55
2.15823e-57
3.62616e-59
5.76807e-61
8.7048e-63
1.24875e-64
1.70596e-66
2.22317e-68
2.76805e-70
3.29775e-72
3.76452e-74
4.12308e-76
4.33801e-78
4.38963e-80
4.27675e-82
4.01612e-84
3.63866e-86
3.18368e-88
2.69256e-90
2.20305e-92
1.74527e-94
1.33975e-96
9.97323e-99
7.20461e-101
5.01944e-103
6.37605e-101
8.97252e-99
1.2177e-96
1.60384e-94
2.04861e-92
2.53575e-90
3.03918e-88
3.52412e-86
3.95014e-84
4.27606e-82
4.46612e-80
4.49607e-78
4.35806e-76
4.06279e-74
3.63842e-72
3.1262e-70
2.57372e-68
2.02738e-66
1.52576e-64
1.09528e-62
7.48709e-61
4.86467e-59
2.99844e-57
1.74953e-55
9.64147e-54
5.0059e-52
2.44214e-50
1.11617e-48
4.76382e-47
1.89191e-45
6.96375e-44
2.36519e-42
7.37586e-41
2.10007e-39
5.42408e-38
1.2614e-36
2.61829e-35
4.80076e-34
7.67846e-33
1.0548e-31
1.22027e-30
1.15864e-29
8.71794e-29
4.94329e-28
1.95673e-27
4.78833e-27
6.24838e-27
6.65414e-27
6.72932e-27
6.73951e-27
6.7395e-27
6.72923e-27
6.65364e-27
6.24649e-27
4.78409e-27
1.95249e-27
4.92439e-28
8.66771e-29
1.14943e-29
1.20759e-30
1.04102e-31
7.55583e-33
4.70899e-34
2.55938e-35
1.22846e-36
5.26155e-38
2.02856e-39
7.09291e-41
2.26372e-42
6.63176e-44
1.79226e-45
4.48808e-47
1.0455e-48
2.27373e-50
4.63138e-52
8.86167e-54
1.59707e-55
2.71778e-57
4.37696e-59
6.68527e-61
9.70297e-63
1.34067e-64
1.76651e-66
2.22317e-68
2.67638e-70
3.08638e-72
3.41392e-74
3.62664e-76
3.70438e-78
3.64227e-80
3.45094e-82
3.15389e-84
2.78303e-86
2.37327e-88
1.95755e-90
1.56307e-92
1.20916e-94
9.06907e-97
6.59979e-99
4.631e-101
5.5456e-99
7.75145e-97
1.04468e-94
1.36615e-92
1.73223e-90
2.12802e-88
2.53082e-86
2.91137e-84
3.23671e-82
3.47442e-80
3.5976e-78
3.58966e-76
3.44778e-74
3.18406e-72
2.82398e-70
2.40233e-68
1.95755e-66
1.52576e-64
1.1358e-62
8.0622e-61
5.44753e-59
3.49735e-57
2.12918e-55
1.22658e-53
6.67097e-52
3.4167e-50
1.64351e-48
7.40279e-47
3.11216e-45
1.21677e-43
4.40667e-42
1.47174e-40
4.51021e-39
1.26109e-37
3.1964e-36
7.28931e-35
1.48255e-33
2.66136e-32
4.16387e-31
5.5904e-30
6.31538e-29
5.85076e-28
4.29269e-27
2.37324e-26
9.17178e-26
2.20427e-25
2.88314e-25
3.07694e-25
3.11383e-25
3.11896e-25
3.11896e-25
3.11379e-25
3.07672e-25
2.88232e-25
2.20247e-25
9.15373e-26
2.36502e-26
4.27025e-27
5.80846e-28
6.25561e-29
5.52372e-30
4.103e-31
2.61468e-32
1.45189e-33
7.11398e-35
3.10801e-36
1.2214e-37
4.34999e-39
1.41317e-40
4.21153e-42
1.15716e-43
2.94436e-45
6.96562e-47
1.53767e-48
3.17769e-50
6.16589e-52
1.12641e-53
1.94221e-55
3.16806e-57
4.89908e-59
7.19646e-61
1.00602e-62
1.34067e-64
1.70596e-66
2.07587e-68
2.41898e-70
2.703e-72
2.89995e-74
2.99077e-76
2.96834e-78
2.83824e-80
2.61716e-82
2.32957e-84
2.0035e-86
1.66628e-88
1.34128e-90
1.04581e-92
7.90452e-95
5.79575e-97
4.09663e-99
4.61977e-97
6.41283e-95
8.58112e-93
1.11396e-90
1.40184e-88
1.70885e-86
2.01619e-84
2.30046e-82
2.53611e-80
2.69893e-78
2.76987e-76
2.73858e-74
2.60569e-72
2.38318e-70
2.09268e-68
1.76202e-66
1.42067e-64
1.09528e-62
8.0622e-61
5.65674e-59
3.77669e-57
2.39487e-55
1.4395e-53
8.18403e-52
4.39075e-50
2.21734e-48
1.05114e-46
4.66361e-45
1.93015e-43
7.42498e-42
2.64416e-40
8.67807e-39
2.61163e-37
7.16597e-36
1.78106e-34
3.97965e-33
7.92403e-32
1.39135e-30
2.12729e-29
2.78844e-28
3.07256e-27
2.77406e-26
1.9822e-25
1.06717e-24
4.02222e-24
9.48762e-24
1.24388e-23
1.33054e-23
1.34751e-23
1.34994e-23
1.34993e-23
1.34749e-23
1.33045e-23
1.24355e-23
9.48046e-24
4.01506e-24
1.06384e-24
1.97284e-25
2.7559e-26
3.04617e-27
2.75819e-28
2.09893e-29
1.36904e-30
7.77389e-32
3.89177e-33
1.73575e-34
6.9581e-36
2.52598e-37
8.35872e-39
2.53571e-40
7.08753e-42
1.83347e-43
4.40741e-45
9.88081e-47
2.07267e-48
4.08031e-50
7.55917e-52
1.32119e-53
2.1836e-55
3.42006e-57
5.08643e-59
7.19646e-61
9.70297e-63
1.24875e-64
1.53637e-66
1.80961e-68
2.04328e-70
2.21453e-72
2.30658e-74
2.31143e-76
2.23094e-78
2.07606e-80
1.86448e-82
1.6175e-84
1.35671e-86
1.10117e-88
8.65549e-91
6.59386e-93
4.87213e-95
3.46961e-97
3.6804e-95
5.07271e-93
6.73822e-91
8.68145e-89
1.08407e-86
1.31101e-84
1.53419e-82
1.73584e-80
1.89718e-78
2.0011e-76
2.03499e-74
1.99315e-72
1.87815e-70
1.70071e-68
1.47813e-66
1.23146e-64
9.8212e-63
7.48709e-61
5.44753e-59
3.77669e-57
2.49051e-55
1.55925e-53
9.24946e-52
5.18739e-50
2.74407e-48
1.36569e-46
6.37702e-45
2.78536e-43
1.13423e-41
4.29038e-40
1.50142e-38
4.83898e-37
1.42906e-35
3.84496e-34
9.3632e-33
2.04811e-31
3.98864e-30
6.84344e-29
1.02141e-27
1.30564e-26
1.40156e-25
1.2316e-24
8.55925e-24
4.48145e-23
1.64534e-22
3.80656e-22
5.00238e-22
5.36403e-22
5.43701e-22
5.44774e-22
5.44773e-22
5.43694e-22
5.36367e-22
5.00112e-22
3.80392e-22
1.6427e-22
4.46887e-23
8.52294e-24
1.22434e-24
1.39069e-25
1.29281e-26
1.00904e-27
6.74354e-29
3.91965e-30
2.00673e-31
9.14486e-33
3.74251e-34
1.38593e-35
4.67482e-37
1.44454e-38
4.11003e-40
1.08161e-41
2.6434e-43
6.02163e-45
1.2828e-46
2.56338e-48
4.81806e-50
8.5397e-52
1.43068e-53
2.27046e-55
3.42006e-57
4.89908e-59
6.68527e-61
8.7048e-63
1.08319e-64
1.28997e-66
1.47225e-68
1.61237e-70
1.69652e-72
1.71698e-74
1.67323e-76
1.57173e-78
1.42451e-80
1.24688e-82
1.05498e-84
8.63556e-87
6.8442e-89
5.25628e-91
3.91455e-93
2.8091e-95
2.79933e-93
3.83028e-91
5.04964e-89
6.45569e-87
7.99745e-85
9.5928e-83
1.11318e-80
1.24865e-78
1.35263e-76
1.41373e-74
1.4242e-72
1.38147e-70
1.28883e-68
1.15514e-66
9.93387e-65
8.18631e-63
6.45572e-61
4.86467e-59
3.49735e-57
2.39487e-55
1.55925e-53
9.63414e-52
5.63757e-50
3.11745e-48
1.62521e-46
7.96713e-45
3.66242e-43
1.57392e-41
6.30219e-40
2.34258e-38
8.05032e-37
2.54606e-35
7.37287e-34
1.94356e-32
4.63317e-31
9.91194e-30
1.8861e-28
3.15869e-27
4.59684e-26
5.72318e-25
5.97726e-24
5.10496e-23
3.44554e-22
1.75188e-21
6.25737e-21
1.41888e-20
1.86897e-20
2.0094e-20
2.03864e-20
2.04307e-20
2.04307e-20
2.03861e-20
2.00927e-20
1.86854e-20
1.41799e-20
6.24839e-21
1.74749e-21
3.43246e-22
5.07798e-23
5.93556e-24
5.67245e-25
4.5465e-26
3.11687e-27
1.85644e-28
9.72946e-30
4.53449e-31
1.89616e-32
7.16878e-34
2.46669e-35
7.76962e-37
2.25178e-38
6.03213e-40
1.49972e-41
3.47335e-43
7.5186e-45
1.52581e-46
2.91104e-48
5.23478e-50
8.89364e-52
1.43068e-53
2.1836e-55
3.16806e-57
4.37696e-59
5.76807e-61
7.26179e-63
8.74672e-65
1.00933e-66
1.11731e-68
1.18795e-70
1.21454e-72
1.19535e-74
1.13371e-76
1.0372e-78
9.162e-81
7.82129e-83
6.45804e-85
5.16197e-87
3.99728e-89
3.00106e-91
2.17051e-93
2.02917e-91
2.75578e-89
3.60503e-87
4.57229e-85
5.61811e-83
6.68239e-81
7.68773e-79
8.54695e-77
9.17434e-75
9.49891e-73
9.47701e-71
9.1014e-69
8.4043e-67
7.45316e-65
6.33996e-63
5.16619e-61
4.02705e-59
2.99844e-57
2.12918e-55
1.4395e-53
9.24946e-52
5.63757e-50
3.25272e-48
1.77262e-46
9.10249e-45
4.39292e-43
1.98687e-41
8.39596e-40
3.3036e-38
1.20587e-36
4.06648e-35
1.26108e-33
3.57785e-32
9.23253e-31
2.15248e-29
4.49917e-28
8.35605e-27
1.36436e-25
1.9336e-24
2.3416e-23
2.37589e-22
1.96917e-21
1.2887e-20
6.35292e-20
2.20451e-19
4.89576e-19
6.46358e-19
6.96903e-19
7.07784e-19
7.09487e-19
7.09485e-19
7.07775e-19
6.96859e-19
6.46217e-19
4.89295e-19
2.2017e-19
6.3388e-20
1.28436e-20
1.95989e-21
2.36106e-22
2.32297e-23
1.91454e-24
1.34805e-25
8.23711e-27
4.424e-28
2.11077e-29
9.02721e-31
3.48735e-32
1.22508e-33
3.93641e-35
1.16292e-36
3.17328e-38
8.03104e-40
1.89216e-41
4.16422e-43
8.58695e-45
1.66379e-46
3.03695e-48
5.23478e-50
8.5397e-52
1.32119e-53
1.94221e-55
2.71778e-57
3.62616e-59
4.62038e-61
5.63051e-63
6.57145e-65
7.35509e-67
7.90439e-69
8.16606e-71
8.11902e-73
7.77681e-75
7.18362e-77
6.40538e-79
5.51826e-81
4.59722e-83
3.70667e-85
2.89478e-87
2.19138e-89
1.59767e-91
1.39912e-89
1.88556e-87
2.44708e-85
3.07837e-83
3.75081e-81
4.42295e-79
5.04332e-77
5.55594e-75
5.9079e-73
6.05793e-71
5.98397e-69
5.68806e-67
5.19709e-65
4.5589e-63
3.83461e-61
3.08863e-59
2.37893e-57
1.74953e-55
1.22658e-53
8.18403e-52
5.18739e-50
3.11745e-48
1.77262e-46
9.51527e-45
4.81022e-43
2.28406e-41
1.0158e-39
4.21809e-38
1.62983e-36
5.83784e-35
1.93034e-33
5.86492e-32
1.62882e-30
4.11055e-29
9.36303e-28
1.91008e-26
3.45838e-25
5.49842e-24
7.57826e-23
8.91342e-22
8.77247e-21
7.04392e-20
4.46197e-19
2.12896e-18
7.16645e-18
1.55748e-17
2.06083e-17
2.22883e-17
2.26629e-17
2.27235e-17
2.27235e-17
2.26626e-17
2.22869e-17
2.06042e-17
1.55667e-17
7.15835e-18
2.12479e-18
4.44868e-19
7.01451e-20
8.7238e-21
8.85016e-22
7.51137e-23
5.4394e-24
3.41403e-25
1.88124e-26
9.19867e-28
4.02753e-29
1.59132e-30
5.71223e-32
1.8739e-33
5.64743e-35
1.57085e-36
4.04963e-38
9.71239e-40
2.17446e-41
4.55875e-43
8.97527e-45
1.66379e-46
2.91104e-48
4.81806e-50
7.55917e-52
1.12641e-53
1.59707e-55
2.15823e-57
2.78421e-59
3.43392e-61
4.05481e-63
4.5901e-65
4.98758e-67
5.20821e-69
5.2325e-71
5.06309e-73
4.72334e-75
4.25237e-77
3.69795e-79
3.10902e-81
2.52919e-83
1.99245e-85
1.52115e-87
1.11818e-89
9.15707e-88
1.22436e-85
1.57603e-83
1.96601e-81
2.37485e-79
2.77564e-77
3.13614e-75
3.42254e-73
3.60426e-71
3.65911e-69
3.5775e-67
3.36478e-65
3.04099e-63
2.63773e-61
2.19307e-59
1.74541e-57
1.32784e-55
9.64147e-54
6.67097e-52
4.39075e-50
2.74407e-48
1.62521e-46
9.10249e-45
4.81022e-43
2.39254e-41
1.11709e-39
4.88195e-38
1.99071e-36
7.54794e-35
2.65093e-33
8.5878e-32
2.55409e-30
6.93691e-29
1.71033e-27
3.80208e-26
7.56112e-25
1.33294e-23
2.06071e-22