/*--------------------------------*- C++ -*----------------------------------*\
  =========                 |
  \\      /  F ield         | OpenFOAM: The Open Source CFD Toolbox
   \\    /   O peration     | Website:  https://openfoam.org
    \\  /    A nd           | Version:  10
     \\/     M anipulation  |
\*---------------------------------------------------------------------------*/
FoamFile
{
    format      ascii;
    class       volScalarField;
    location    "99";
    object      h;
}
// * * * * * * * * * * * * * * * * * * * * * * * * * * * * * * * * * * * * * //

dimensions      [0 1 0 0 0 0 0];

internalField   nonuniform List<scalar> 
10000
(
-0.000279503
-0.000873004
-0.001536
-0.00225705
-0.00302742
-0.00384953
-0.00468818
-0.00545919
-0.00607711
-0.00647428
-0.00656657
-0.0062532
-0.0054842
-0.00429851
-0.0027808
-0.00102045
0.000863221
0.00269152
0.00425714
0.0053998
0.00607066
0.00633962
0.0063418
0.00619217
0.00592674
0.00552204
0.00497313
0.00435421
0.00381326
0.00348873
0.00338803
0.00333076
0.00302637
0.00224691
0.000989811
-0.000469002
-0.00168186
-0.00225361
-0.00204893
-0.00125171
-0.000234562
0.000679422
0.00139277
0.00201816
0.0027001
0.00344211
0.00409407
0.00449748
0.00463561
0.00463742
0.00463743
0.00463564
0.0044975
0.00409406
0.00344206
0.00270001
0.00201805
0.00139263
0.000679274
-0.000234683
-0.00125176
-0.00204887
-0.00225342
-0.00168157
-0.000468659
0.000990125
0.00224711
0.00302639
0.00333054
0.00338758
0.00348807
0.0038125
0.00435346
0.0049725
0.00552166
0.00592669
0.00619249
0.0063425
0.00634067
0.00607199
0.00540127
0.00425858
0.00269275
0.000864096
-0.00102006
-0.00278095
-0.00429921
-0.00548537
-0.00625472
-0.00656827
-0.00647598
-0.00607864
-0.00546042
-0.00468906
-0.00385005
-0.00302763
-0.00225704
-0.00153588
-0.000872882
-0.00027945
-0.000873004
-0.00271072
-0.00472534
-0.00687067
-0.00911625
-0.0114727
-0.0138459
-0.0160018
-0.0177063
-0.0187799
-0.0189912
-0.0180504
-0.0158045
-0.012353
-0.00792861
-0.00278262
0.00274011
0.00811767
0.0127448
0.0161551
0.0182064
0.0190991
0.0192185
0.0188898
0.0182121
0.0171145
0.0155767
0.0138006
0.0122012
0.0111792
0.0107724
0.0104837
0.00949419
0.00715386
0.00345101
-0.00082629
-0.00438601
-0.00607524
-0.00548846
-0.00315215
-0.000151184
0.00256721
0.00471082
0.00660004
0.00864815
0.0108564
0.0127785
0.0139509
0.0143348
0.0143239
0.0143239
0.0143349
0.013951
0.0127785
0.0108562
0.00864788
0.00659966
0.00471039
0.00256679
-0.000151485
-0.00315223
-0.00548823
-0.00607469
-0.00438521
-0.000825385
0.00345181
0.00715435
0.00949418
0.0104831
0.0107711
0.0111774
0.0121992
0.0137985
0.015575
0.0171135
0.018212
0.0188908
0.0192205
0.0191021
0.0182102
0.0161592
0.0127489
0.00812117
0.00274258
-0.00278152
-0.00792905
-0.012355
-0.0158079
-0.0180547
-0.018996
-0.0187848
-0.0177108
-0.0160054
-0.0138485
-0.0114743
-0.00911699
-0.00687078
-0.00472512
-0.00271044
-0.00087288
-0.001536
-0.00472534
-0.00811487
-0.0115928
-0.0150968
-0.018656
-0.0221496
-0.0252455
-0.0276233
-0.0290557
-0.0292225
-0.0276801
-0.0241651
-0.0187897
-0.0118745
-0.00378256
0.00495849
0.0135308
0.020985
0.0265936
0.0301343
0.0319062
0.0324819
0.0323346
0.0315949
0.0301411
0.0279228
0.0252148
0.0226239
0.0207718
0.0197684
0.0189198
0.0170225
0.0130977
0.0071155
0.000270615
-0.00543682
-0.00818345
-0.00729436
-0.00357088
0.0012777
0.00573709
0.00931919
0.0125054
0.0159266
0.0195609
0.0226801
0.024545
0.0251185
0.0250674
0.0250675
0.0251188
0.0245452
0.0226802
0.0195607
0.015926
0.0125047
0.00931848
0.0057365
0.00127737
-0.00357083
-0.00729388
-0.00818257
-0.00543569
0.000271785
0.00711646
0.0130982
0.0170223
0.0189188
0.0197665
0.0207693
0.022621
0.0252119
0.0279204
0.0301398
0.0315949
0.0323361
0.032485
0.0319109
0.0301401
0.0265999
0.0209911
0.013536
0.00496214
-0.00378095
-0.0118752
-0.0187927
-0.0241702
-0.0276866
-0.0292299
-0.0290631
-0.0276301
-0.0252512
-0.0221539
-0.0186588
-0.0150984
-0.0115933
-0.00811483
-0.00472512
-0.00153588
-0.00225705
-0.00687067
-0.0115928
-0.0162061
-0.0206051
-0.0248524
-0.0288481
-0.0322371
-0.0347015
-0.036057
-0.0359768
-0.0339155
-0.0294926
-0.0227685
-0.014065
-0.00377814
0.0074554
0.0186061
0.0284738
0.0361443
0.0413328
0.0443828
0.0459479
0.0465453
0.0462817
0.0449738
0.0425234
0.039211
0.0357365
0.032886
0.0308937
0.029031
0.0259064
0.020341
0.0122764
0.00317493
-0.00443587
-0.00817795
-0.00710638
-0.00220479
0.00430867
0.0104224
0.0154451
0.0199569
0.0247471
0.0297567
0.0340042
0.0365124
0.0372592
0.0371692
0.0371693
0.0372595
0.0365127
0.0340041
0.0297562
0.0247463
0.0199559
0.0154442
0.0104219
0.00430852
-0.00220443
-0.00710556
-0.0081768
-0.00443461
0.00317603
0.0122771
0.0203411
0.0259058
0.0290295
0.0308915
0.0328832
0.0357333
0.039208
0.042521
0.0449725
0.046282
0.0465474
0.045952
0.0443886
0.0413398
0.0361519
0.0284812
0.0186123
0.00745971
-0.00377629
-0.0140659
-0.0227721
-0.0294986
-0.0339234
-0.0359858
-0.0360662
-0.0347101
-0.0322446
-0.028854
-0.0248566
-0.0206077
-0.0162075
-0.0115933
-0.00687078
-0.00225704
-0.00302742
-0.00911625
-0.0150968
-0.0206051
-0.025481
-0.0298371
-0.0336467
-0.0366173
-0.0385329
-0.0393504
-0.0388259
-0.036371
-0.031487
-0.024118
-0.014493
-0.00294829
0.00986376
0.0228115
0.0345623
0.0441064
0.0511158
0.0559077
0.059086
0.0610855
0.0619201
0.0613299
0.0591547
0.0556205
0.0514248
0.0474572
0.0441218
0.0408167
0.0361639
0.0289144
0.0189711
0.00792414
-0.00135185
-0.00603885
-0.00491702
0.000946088
0.00893911
0.0166137
0.023056
0.0288813
0.0349897
0.0412944
0.046612
0.049767
0.0507404
0.0506621
0.0506622
0.0507406
0.049767
0.0466117
0.0412937
0.0349887
0.0288802
0.0230552
0.0166133
0.00893928
0.000946789
-0.00491591
-0.00603756
-0.00135067
0.00792491
0.0189712
0.0289138
0.0361626
0.0408149
0.0441194
0.0474544
0.051422
0.055618
0.0591529
0.0613293
0.061921
0.0610882
0.0590906
0.055914
0.0511233
0.0441143
0.0345699
0.0228178
0.00986813
-0.00294645
-0.0144939
-0.0241217
-0.0314932
-0.0363792
-0.0388354
-0.0393604
-0.0385426
-0.036626
-0.033654
-0.0298428
-0.025485
-0.0206077
-0.0150984
-0.00911698
-0.00302762
-0.00384953
-0.0114727
-0.018656
-0.0248524
-0.0298371
-0.0337858
-0.0367943
-0.0387172
-0.0395356
-0.0394351
-0.0383314
-0.0356465
-0.0307669
-0.0234668
-0.013798
-0.00194929
0.0115052
0.0254427
0.0385158
0.0497068
0.0586606
0.0655992
0.0709544
0.0749634
0.0774839
0.0781633
0.0767672
0.0734218
0.0687459
0.0636749
0.05881
0.0538043
0.0474595
0.0385641
0.0269694
0.014275
0.00355096
-0.00204048
-0.000995871
0.00562591
0.0149242
0.0240604
0.031871
0.038947
0.0462699
0.0537566
0.0600897
0.0639354
0.0652458
0.0652699
0.0652699
0.0652457
0.0639351
0.060089
0.0537556
0.0462688
0.0389461
0.0318705
0.0240603
0.0149247
0.00562676
-0.000994744
-0.00203934
0.00355181
0.0142753
0.0269689
0.0385629
0.0474577
0.0538021
0.0588076
0.0636726
0.0687439
0.0734203
0.0767666
0.0781638
0.0774857
0.0749667
0.0709593
0.0656053
0.0586677
0.0497141
0.0385227
0.0254484
0.011509
-0.00194771
-0.0137989
-0.0234702
-0.0307726
-0.0356542
-0.0383404
-0.0394449
-0.0395455
-0.0387267
-0.0368027
-0.0337929
-0.0298428
-0.0248566
-0.0186588
-0.0114743
-0.00385004
-0.00468818
-0.0138459
-0.0221496
-0.0288481
-0.0336467
-0.0367943
-0.0385521
-0.0389956
-0.038379
-0.0371769
-0.0355118
-0.0328505
-0.0284666
-0.0219262
-0.0130393
-0.00177503
0.0114512
0.0256184
0.0394573
0.0520069
0.0628958
0.072201
0.0800999
0.0865569
0.0912316
0.0936606
0.0935162
0.0907882
0.0859619
0.0799689
0.0736127
0.066883
0.0588761
0.0484919
0.0355176
0.0214715
0.00950149
0.00303427
0.00386248
0.0110196
0.0214179
0.0318818
0.0409827
0.0492375
0.057683
0.066268
0.0736019
0.0782249
0.0800189
0.0802577
0.0802575
0.0800184
0.0782241
0.0736009
0.0662669
0.0576821
0.0492369
0.0409825
0.031882
0.0214184
0.0110203
0.00386327
0.00303495
0.0095018
0.0214713
0.0355166
0.0484902
0.058874
0.0668807
0.0736107
0.0799674
0.0859611
0.0907882
0.0935171
0.0936625
0.0912344
0.0865607
0.0801046
0.0722065
0.0629016
0.0520127
0.0394626
0.0256227
0.011454
-0.00177391
-0.0130401
-0.021929
-0.0284713
-0.0328568
-0.0355195
-0.0371857
-0.0383885
-0.0390052
-0.0385613
-0.0368027
-0.033654
-0.028854
-0.0221539
-0.0138485
-0.00468905
-0.00545919
-0.0160018
-0.0252455
-0.0322371
-0.0366173
-0.0387172
-0.0389956
-0.0378019
-0.0357087
-0.0334985
-0.0315078
-0.0292565
-0.0259051
-0.020789
-0.0134365
-0.00354719
0.00868271
0.0223994
0.0364666
0.0500121
0.0626494
0.074291
0.0848328
0.0939464
0.101079
0.105634
0.10716
0.105475
0.100894
0.0943096
0.0867155
0.0784712
0.0690302
0.0574474
0.0434377
0.0283725
0.0153795
0.00807037
0.00851499
0.0159125
0.0271067
0.0386783
0.0489581
0.0583573
0.0679269
0.0776392
0.0860529
0.0915947
0.0940394
0.0946084
0.0946082
0.0940388
0.0915938
0.0860519
0.0776382
0.0679261
0.058357
0.0489582
0.0386786
0.0271071
0.0159129
0.00851523
0.0080704
0.0153792
0.0283716
0.0434363
0.0574455
0.0690281
0.0784693
0.0867141
0.0943091
0.100894
0.105476
0.107162
0.105637
0.101082
0.0939505
0.0848371
0.0742954
0.0626536
0.0500159
0.0364699
0.0224019
0.00868429
-0.00354665
-0.0134371
-0.0207908
-0.0259083
-0.0292611
-0.0315137
-0.0335057
-0.035717
-0.0378111
-0.0390052
-0.0387267
-0.036626
-0.0322446
-0.0252512
-0.0160054
-0.00546042
-0.00607711
-0.0177063
-0.0276233
-0.0347015
-0.0385329
-0.0395356
-0.038379
-0.0357087
-0.0324186
-0.0295728
-0.0276884
-0.0263235
-0.0245257
-0.0213977
-0.016176
-0.00826867
0.00238075
0.0151177
0.0289528
0.0430965
0.0571406
0.0708439
0.0838521
0.0955779
0.105268
0.112173
0.115677
0.115397
0.111466
0.10472
0.0963204
0.0869871
0.07654
0.0642057
0.0496224
0.0339685
0.0202633
0.0122079
0.0121085
0.019386
0.0309531
0.0432945
0.0545825
0.065117
0.0759056
0.0868879
0.0965446
0.103178
0.10643
0.107427
0.107427
0.10643
0.103177
0.0965437
0.086887
0.075905
0.0651167
0.0545825
0.0432946
0.0309532
0.0193859
0.0121082
0.0122073
0.0202624
0.0339672
0.0496208
0.0642039
0.0765382
0.0869858
0.09632
0.104721
0.111468
0.1154
0.11568
0.112177
0.105272
0.0955821
0.0838559
0.070847
0.0571429
0.0430981
0.0289539
0.0151183
0.00238099
-0.00826873
-0.0161764
-0.0213987
-0.0245274
-0.0263262
-0.0276922
-0.0295782
-0.0324255
-0.035717
-0.0383885
-0.0395455
-0.0385425
-0.0347101
-0.0276301
-0.0177108
-0.00607864
-0.00647428
-0.0187799
-0.0290557
-0.036057
-0.0393504
-0.0394351
-0.0371769
-0.0334985
-0.0295728
-0.0266754
-0.02544
-0.0254363
-0.025604
-0.0248322
-0.0220849
-0.01649
-0.00773846
0.00370967
0.0169849
0.0313419
0.0463378
0.0616184
0.0766599
0.0906938
0.102801
0.112065
0.117667
0.119015
0.116071
0.109626
0.100989
0.0911863
0.0803602
0.0678891
0.0533294
0.0376393
0.0236539
0.0150605
0.014333
0.0211431
0.0326083
0.0452946
0.0573428
0.0689659
0.0810693
0.0934785
0.104541
0.11241
0.116584
0.118073
0.118073
0.116584
0.112409
0.10454
0.0934778
0.0810687
0.0689655
0.0573426
0.0452944
0.0326079
0.0211425
0.0143321
0.0150595
0.0236527
0.0376379
0.0533279
0.0678876
0.0803592
0.091186
0.100989
0.109628
0.116074
0.119019
0.117672
0.112069
0.102806
0.0906977
0.0766628
0.0616202
0.0463385
0.0313416
0.0169839
0.00370853
-0.00773947
-0.0164907
-0.0220852
-0.0248323
-0.0256043
-0.0254371
-0.025442
-0.026679
-0.0295782
-0.0335057
-0.0371857
-0.0394449
-0.0393604
-0.0360662
-0.0290631
-0.0187848
-0.00647598
-0.00656657
-0.0189912
-0.0292225
-0.0359768
-0.0388259
-0.0383314
-0.0355118
-0.0315078
-0.0276884
-0.02544
-0.0254328
-0.0272167
-0.0296349
-0.0313934
-0.0312236
-0.0280127
-0.0212331
-0.0111894
0.00131207
0.0155122
0.0309206
0.0471328
0.0635692
0.0793822
0.0935319
0.104922
0.112513
0.115511
0.113761
0.108053
0.0998182
0.0903113
0.0798889
0.0680167
0.054155
0.0390365
0.0252687
0.0164393
0.0151129
0.0212104
0.0321554
0.0447556
0.0572551
0.0698264
0.0832361
0.0971308
0.109677
0.118859
0.124018
0.126037
0.126037
0.124018
0.118859
0.109677
0.0971302
0.0832356
0.0698258
0.0572544
0.0447547
0.0321543
0.0212092
0.0151115
0.016438
0.0252674
0.0390354
0.054154
0.0680159
0.0798888
0.0903121
0.0998202
0.108056
0.113765
0.115515
0.112518
0.104927
0.0935359
0.0793853
0.0635711
0.0471333
0.0309198
0.0155104
0.00130961
-0.0111919
-0.0212351
-0.0280139
-0.0312239
-0.031393
-0.0296342
-0.0272163
-0.0254332
-0.025442
-0.0276922
-0.0315137
-0.0355195
-0.0383404
-0.0388354
-0.0359858
-0.0292299
-0.018996
-0.00656827
-0.0062532
-0.0180504
-0.0276801
-0.0339155
-0.036371
-0.0356465
-0.0328505
-0.0292565
-0.0263235
-0.0254363
-0.0272167
-0.0311629
-0.036029
-0.0403678
-0.0427225
-0.0417977
-0.0369089
-0.0282682
-0.0166884
-0.00300188
0.0122462
0.0286714
0.045755
0.06267
0.0782965
0.0913535
0.100577
0.105019
0.104497
0.0998631
0.0926648
0.0842667
0.0750886
0.0645712
0.05205
0.0380523
0.0249617
0.0162223
0.0144227
0.0197033
0.0298388
0.0419846
0.0545959
0.0678608
0.0824081
0.097684
0.111663
0.12215
0.128315
0.130883
0.130883
0.128314
0.12215
0.111662
0.0976836
0.0824075
0.0678601
0.0545947
0.0419831
0.029837
0.0197014
0.014421
0.016221
0.0249608
0.0380517
0.0520498
0.0645714
0.0750896
0.0842687
0.0926679
0.0998671
0.104501
0.105024
0.100582
0.0913574
0.0782995
0.062672
0.0457558
0.0286708
0.0122444
-0.0030047
-0.0166918
-0.0282715
-0.0369116
-0.0417993
-0.042723
-0.0403673
-0.0360279
-0.0311618
-0.0272163
-0.0254371
-0.0263261
-0.0292611
-0.0328568
-0.0356542
-0.0363792
-0.0339234
-0.0276866
-0.0180547
-0.00625472
-0.0054842
-0.0158045
-0.0241651
-0.0294926
-0.031487
-0.0307669
-0.0284666
-0.0259051
-0.0245257
-0.025604
-0.0296349
-0.036029
-0.0434495
-0.0503122
-0.0550118
-0.0561387
-0.0529339
-0.0455936
-0.0350024
-0.0221119
-0.0075242
0.00845199
0.0254472
0.0427268
0.0591208
0.0731716
0.0834232
0.0888577
0.0893788
0.0859901
0.0803358
0.0737667
0.0665871
0.0580771
0.047412
0.0349567
0.0229174
0.0145863
0.0125185
0.0170161
0.0261926
0.037594
0.0499552
0.0635384
0.0788684
0.0952176
0.110393
0.122039
0.12914
0.132235
0.132235
0.129139
0.122039
0.110393
0.0952171
0.0788679
0.0635375
0.0499538
0.037592
0.0261902
0.0170138
0.0125166
0.0145852
0.0229171
0.034957
0.0474128
0.0580784
0.0665892
0.0737696
0.0803396
0.0859945
0.0893834
0.0888621
0.0834269
0.0731743
0.0591225
0.0427275
0.0254468
0.00845055
-0.00752661
-0.0221151
-0.0350059
-0.0455971
-0.0529368
-0.0561407
-0.0550127
-0.050312
-0.0434486
-0.0360279
-0.0296341
-0.0256042
-0.0245273
-0.0259083
-0.0284712
-0.0307726
-0.0314932
-0.0294986
-0.0241702
-0.0158079
-0.00548538
-0.00429851
-0.012353
-0.0187897
-0.0227685
-0.024118
-0.0234668
-0.0219262
-0.020789
-0.0213977
-0.0248322
-0.0313934
-0.0403678
-0.0503122
-0.059507
-0.0662323
-0.0690376
-0.0671829
-0.0609263
-0.0512713
-0.0393116
-0.0257057
-0.0106642
0.00562726
0.0225554
0.0389211
0.0531227
0.0635846
0.0693353
0.0704903
0.0682785
0.0644199
0.0601335
0.0554498
0.0493728
0.0408983
0.0302865
0.0196264
0.0120544
0.0100202
0.0138957
0.0220766
0.0324973
0.0442119
0.057611
0.0731702
0.0900415
0.105921
0.118338
0.126117
0.129615
0.129614
0.126116
0.118337
0.10592
0.0900406
0.0731694
0.05761
0.0442103
0.0324952
0.0220742
0.0138936
0.0100186
0.0120538
0.0196268
0.0302878
0.0409002
0.0493753
0.0554528
0.0601371
0.0644241
0.0682829
0.0704946
0.0693389
0.0635873
0.0531243
0.0389216
0.0225548
0.00562585
-0.0106663
-0.0257084
-0.0393146
-0.0512746
-0.0609295
-0.0671858
-0.0690398
-0.0662336
-0.0595075
-0.050312
-0.0403673
-0.031393
-0.0248323
-0.0213986
-0.0207908
-0.021929
-0.0234702
-0.0241217
-0.0227721
-0.0187927
-0.012355
-0.00429921
-0.0027808
-0.00792861
-0.0118745
-0.014065
-0.014493
-0.013798
-0.0130393
-0.0134365
-0.016176
-0.0220849
-0.0312236
-0.0427225
-0.0550118
-0.0662323
-0.0745778
-0.0786276
-0.0777465
-0.0723135
-0.0634662
-0.0524326
-0.0399278
-0.0260822
-0.0109256
0.00503394
0.0205834
0.0340364
0.0437993
0.0490684
0.0502722
0.0489081
0.046744
0.0447856
0.0427004
0.0391675
0.0330168
0.0244602
0.0155071
0.00910351
0.00748905
0.0109866
0.0181945
0.0274152
0.0380462
0.0506539
0.06572
0.0823377
0.0981632
0.110692
0.118665
0.122312
0.122311
0.118664
0.11069
0.0981616
0.0823364
0.0657188
0.0506526
0.0380447
0.0274134
0.0181926
0.0109851
0.00748821
0.00910364
0.0155082
0.0244624
0.0330197
0.0391709
0.0427042
0.0447896
0.0467481
0.048912
0.0502756
0.0490709
0.0438007
0.0340367
0.0205826
0.00503229
-0.0109278
-0.0260848
-0.0399305
-0.0524353
-0.0634689
-0.0723162
-0.077749
-0.0786299
-0.0745796
-0.0662336
-0.0550127
-0.042723
-0.0312238
-0.0220852
-0.0161764
-0.0134371
-0.01304
-0.0137989
-0.0144939
-0.0140659
-0.0118752
-0.00792906
-0.00278096
-0.00102045
-0.00278262
-0.00378256
-0.00377814
-0.00294829
-0.00194929
-0.00177503
-0.00354719
-0.00826867
-0.01649
-0.0280127
-0.0417977
-0.0561387
-0.0690376
-0.0786276
-0.0835696
-0.0833868
-0.0785968
-0.0704445
-0.0602569
-0.0488085
-0.0362065
-0.0224058
-0.00786265
0.00620881
0.0181145
0.026349
0.030367
0.0309575
0.0298887
0.0289536
0.0289269
0.0291219
0.0279253
0.0240439
0.0176696
0.0107189
0.00587412
0.00504554
0.0083905
0.0146372
0.0224327
0.0315285
0.0426966
0.0564698
0.0719433
0.0868147
0.0986475
0.106206
0.109673
0.109673
0.106205
0.0986458
0.0868129
0.0719416
0.0564683
0.0426952
0.0315271
0.0224314
0.0146361
0.00838997
0.00504573
0.00587517
0.0107209
0.0176724
0.0240475
0.0279294
0.0291261
0.028931
0.0289572
0.0298917
0.0309596
0.0303682
0.0263491
0.0181137
0.0062071
-0.007865
-0.0224086
-0.0362092
-0.0488111
-0.0602593
-0.0704467
-0.0785989
-0.0833889
-0.0835718
-0.0786299
-0.0690398
-0.0561407
-0.0417993
-0.0280139
-0.0164906
-0.0082687
-0.00354662
-0.00177389
-0.0019477
-0.00294644
-0.00377629
-0.00378096
-0.00278153
-0.00102007
0.000863221
0.00274011
0.00495849
0.0074554
0.00986376
0.0115052
0.0114512
0.00868271
0.00238075
-0.00773846
-0.0212331
-0.0369089
-0.0529339
-0.0671829
-0.0777465
-0.0833868
-0.0837881
-0.0795735
-0.0720332
-0.0625453
-0.0519588
-0.0404455
-0.0280009
-0.0151028
-0.00295478
0.00682247
0.0129006
0.0150339
0.0143579
0.0128821
0.0124251
0.0135875
0.015426
0.0161275
0.0143163
0.0101436
0.00536686
0.00231561
0.0024824
0.00578768
0.0110416
0.0172046
0.024361
0.0334867
0.0451973
0.0586599
0.0717114
0.0820889
0.0886721
0.0916643
0.0916639
0.088671
0.0820873
0.0717098
0.0586582
0.0451958
0.0334853
0.0243598
0.0172039
0.0110415
0.00578831
0.00248377
0.00231766
0.00536954
0.0101469
0.0143201
0.0161316
0.0154302
0.0135913
0.0124281
0.0128839
0.0143586
0.0150336
0.0128995
0.00682069
-0.00295708
-0.0151055
-0.0280037
-0.0404482
-0.0519613
-0.0625474
-0.072035
-0.0795752
-0.0837899
-0.0833889
-0.077749
-0.0671858
-0.0529368
-0.0369115
-0.0212351
-0.00773944
0.00238102
0.00868431
0.0114541
0.011509
0.00986813
0.0074597
0.00496213
0.00274256
0.000864084
0.00269152
0.00811767
0.0135308
0.0186061
0.0228115
0.0254427
0.0256184
0.0223994
0.0151177
0.00370967
-0.0111894
-0.0282682
-0.0455936
-0.0609263
-0.0723135
-0.0785968
-0.0795735
-0.0759014
-0.0688444
-0.0597985
-0.0497241
-0.0389618
-0.0276722
-0.0164291
-0.00641376
0.000898889
0.00442005
0.00419997
0.00166588
-0.000971976
-0.00183647
-0.00038837
0.00231958
0.00438063
0.0043511
0.00227171
-0.000353485
-0.0016112
-0.000445757
0.00282313
0.00706261
0.0114862
0.0164377
0.023053
0.0320526
0.0427665
0.0532927
0.0616421
0.0668622
0.0691873
0.069187
0.0668615
0.0616411
0.0532917
0.0427655
0.0320516
0.0230521
0.016437
0.0114862
0.00706341
0.00282484
-0.000443297
-0.00160824
-0.00035024
0.00227515
0.0043547
0.0043843
0.00232308
-0.000385443
-0.00183453
-0.000971254
0.0016654
0.00419853
0.00441795
0.000896426
-0.00641638
-0.0164317
-0.0276748
-0.0389643
-0.0497262
-0.0598004
-0.068846
-0.0759029
-0.0795752
-0.0785989
-0.0723162
-0.0609295
-0.0455971
-0.0282715
-0.0111919
0.00370855
0.0151183
0.0224019
0.0256227
0.0254484
0.0228178
0.0186123
0.013536
0.00812116
0.00269274
0.00425714
0.0127448
0.020985
0.0284738
0.0345623
0.0385158
0.0394573
0.0364666
0.0289528
0.0169849
0.00131207
-0.0166884
-0.0350024
-0.0512713
-0.0634662
-0.0704445
-0.0720332
-0.0688444
-0.0620659
-0.0531112
-0.0431088
-0.0326679
-0.0222151
-0.0124776
-0.0046052
0.000124844
0.000897978
-0.00196732
-0.00682057
-0.0112862
-0.0133781
-0.0124901
-0.00964153
-0.00674935
-0.00533996
-0.00556779
-0.00626175
-0.00593441
-0.0039108
-0.000697119
0.00261316
0.00538788
0.00810189
0.0119682
0.0178261
0.025273
0.0328013
0.038785
0.0424531
0.0440343
0.0440342
0.0424528
0.0387848
0.0328012
0.0252729
0.017826
0.0119681
0.00810204
0.00538862
0.00261476
-0.000694609
-0.00390759
-0.00593088
-0.00625823
-0.00556445
-0.00533684
-0.00674647
-0.00963903
-0.0124883
-0.0133773
-0.0112865
-0.00682196
-0.00196956
0.000895242
0.000121977
-0.00460795
-0.0124801
-0.0222174
-0.0326699
-0.0431106
-0.0531128
-0.0620674
-0.068846
-0.072035
-0.0704467
-0.0634689
-0.0512746
-0.0350059
-0.0166918
0.00130963
0.016984
0.0289539
0.0364699
0.0394626
0.0385227
0.0345699
0.0284811
0.0209911
0.0127489
0.00425857
0.0053998
0.0161551
0.0265936
0.0361443
0.0441064
0.0497068
0.0520069
0.0500121
0.0430965
0.0313419
0.0155122
-0.00300188
-0.0221119
-0.0393116
-0.0524326
-0.0602569
-0.0625453
-0.0597985
-0.0531112
-0.0439427
-0.0336471
-0.0231686
-0.013254
-0.00481131
0.00104442
0.0032554
0.00129031
-0.00429816
-0.0116983
-0.018403
-0.0222817
-0.0225673
-0.0201462
-0.0168942
-0.0144371
-0.0131794
-0.0123118
-0.0107267
-0.00802751
-0.00482811
-0.00220145
-0.000745877
-1.14755e-05
0.00118727
0.00380649
0.00779742
0.0121562
0.0156849
0.0177883
0.0186409
0.018641
0.0177887
0.0156856
0.0121572
0.00779853
0.00380759
0.00118834
-1.02495e-05
-0.000744209
-0.00219911
-0.00482509
-0.00802403
-0.0107231
-0.0123084
-0.0131765
-0.0144347
-0.0168922
-0.0201448
-0.0225667
-0.0222819
-0.0184041
-0.0117002
-0.00430075
0.00128739
0.00325247
0.00104176
-0.00481358
-0.0132559
-0.0231702
-0.0336486
-0.0439442
-0.0531128
-0.0598004
-0.0625474
-0.0602593
-0.0524353
-0.0393146
-0.0221151
-0.00300469
0.0155104
0.0313416
0.0430981
0.0500159
0.0520127
0.0497141
0.0441143
0.0361519
0.0265999
0.0161592
0.00540126
0.00607066
0.0182064
0.0301343
0.0413328
0.0511158
0.0586606
0.0628958
0.0626494
0.0571406
0.0463378
0.0309206
0.0122462
-0.0075242
-0.0257057
-0.0399278
-0.0488085
-0.0519588
-0.0497241
-0.0431088
-0.0336471
-0.022947
-0.0123007
-0.00277453
0.00454551
0.00857434
0.00846511
0.00395703
-0.0041941
-0.0140675
-0.0230724
-0.0289461
-0.0307327
-0.0291375
-0.0259562
-0.0228983
-0.020613
-0.0186243
-0.0161284
-0.0129004
-0.00958738
-0.00725614
-0.00657855
-0.00727466
-0.00829421
-0.00859363
-0.00783379
-0.00646386
-0.00522581
-0.00454679
-0.00433889
-0.00433849
-0.00454564
-0.00522402
-0.00646166
-0.00783143
-0.00859127
-0.00829188
-0.00727224
-0.00657587
-0.00725312
-0.00958411
-0.012897
-0.0161252
-0.0186216
-0.0206108
-0.0228968
-0.0259552
-0.0291372
-0.0307331
-0.0289471
-0.023074
-0.0140697
-0.00419659
0.00395439
0.00846252
0.008572
0.00454353
-0.00277612
-0.0123021
-0.0229483
-0.0336486
-0.0431106
-0.0497262
-0.0519613
-0.0488111
-0.0399305
-0.0257084
-0.0075266
0.0122444
0.0309198
0.0463385
0.0571429
0.0626536
0.0629016
0.0586677
0.0511233
0.0413398
0.0301401
0.0182102
0.00607198
0.00633962
0.0190991
0.0319062
0.0443828
0.0559077
0.0655992
0.072201
0.074291
0.0708439
0.0616184
0.0471328
0.0286714
0.00845199
-0.0106642
-0.0260822
-0.0362065
-0.0404455
-0.0389618
-0.0326679
-0.0231686
-0.0123007
-0.00166036
0.00741448
0.0136839
0.0160805
0.0139353
0.00722765
-0.00311353
-0.0151084
-0.026156
-0.0339331
-0.03733
-0.0368545
-0.0341675
-0.030994
-0.0281641
-0.0254734
-0.0223493
-0.0186598
-0.0150269
-0.01251
-0.0119226
-0.0132646
-0.0157225
-0.0182267
-0.0200774
-0.0211826
-0.0218374
-0.022309
-0.0226049
-0.0226042
-0.0223071
-0.0218346
-0.0211792
-0.0200739
-0.0182232
-0.015719
-0.013261
-0.011919
-0.0125064
-0.0150235
-0.0186569
-0.0223471
-0.0254717
-0.028163
-0.0309934
-0.0341675
-0.036855
-0.037331
-0.0339346
-0.0261579
-0.0151105
-0.00311557
0.00722564
0.0139334
0.0160787
0.0136823
0.00741309
-0.00166163
-0.0123021
-0.0231702
-0.0326699
-0.0389643
-0.0404482
-0.0362092
-0.0260848
-0.0106663
0.00845056
0.0286708
0.0471334
0.0616202
0.070847
0.0742954
0.0722065
0.0656053
0.055914
0.0443886
0.0319108
0.0191021
0.00634067
0.0063418
0.0192185
0.0324819
0.0459479
0.059086
0.0709544
0.0800999
0.0848328
0.0838521
0.0766599
0.0635692
0.045755
0.0254472
0.00562726
-0.0109256
-0.0224058
-0.0280009
-0.0276722
-0.0222151
-0.013254
-0.00277453
0.00741448
0.0157797
0.0209633
0.0218987
0.0180454
0.00957601
-0.00244405
-0.0160301
-0.0286633
-0.0380677
-0.0430495
-0.0439107
-0.0420972
-0.0392424
-0.0362668
-0.0331777
-0.029589
-0.0254155
-0.0212099
-0.0180021
-0.0167699
-0.0178612
-0.0207873
-0.0245348
-0.0281118
-0.0309414
-0.032911
-0.0341455
-0.0347517
-0.0347508
-0.034143
-0.0329073
-0.0309371
-0.0281074
-0.0245304
-0.020783
-0.0178569
-0.0167658
-0.0179983
-0.0212068
-0.0254133
-0.0295878
-0.0331773
-0.0362669
-0.0392428
-0.0420979
-0.0439118
-0.0430509
-0.0380693
-0.028665
-0.0160317
-0.00244546
0.0095748
0.0180443
0.0218976
0.0209621
0.0157784
0.00741309
-0.00277613
-0.0132559
-0.0222174
-0.0276748
-0.0280037
-0.0224086
-0.0109279
0.00562585
0.0254468
0.0457558
0.0635711
0.0766629
0.0838559
0.0848371
0.0801046
0.0709593
0.0590906
0.045952
0.032485
0.0192205
0.0063425
0.00619217
0.0188898
0.0323346
0.0465453
0.0610855
0.0749634
0.0865569
0.0939464
0.0955779
0.0906938
0.0793822
0.06267
0.0427268
0.0225554
0.00503394
-0.00786265
-0.0151028
-0.0164291
-0.0124776
-0.00481131
0.00454551
0.0136839
0.0209633
0.0249493
0.0245593
0.0193237
0.00954764
-0.003613
-0.0182189
-0.031914
-0.0425699
-0.0489791
-0.0512337
-0.0504874
-0.0481797
-0.0452465
-0.0418734
-0.0378467
-0.0331057
-0.0280964
-0.0237798
-0.0212809
-0.0213166
-0.0237799
-0.0277888
-0.0321407
-0.0358513
-0.0384644
-0.0400028
-0.0406885
-0.0406875
-0.04
-0.0384602
-0.0358465
-0.0321357
-0.0277839
-0.0237752
-0.0213121
-0.0212767
-0.0237763
-0.0280938
-0.0331043
-0.0378465
-0.041874
-0.0452476
-0.048181
-0.0504887
-0.051235
-0.0489804
-0.0425713
-0.0319152
-0.0182199
-0.00361373
0.00954716
0.0193233
0.0245588
0.0249486
0.0209621
0.0136823
0.00454353
-0.00481359
-0.0124801
-0.0164318
-0.0151055
-0.00786501
0.00503229
0.0225548
0.0427275
0.062672
0.0793853
0.0906978
0.0955821
0.0939505
0.0865607
0.0749667
0.0610882
0.0465474
0.0323361
0.0188908
0.00619249
0.00592674
0.0182121
0.0315949
0.0462817
0.0619201
0.0774839
0.0912316
0.101079
0.105268
0.102801
0.0935319
0.0782965
0.0591208
0.0389211
0.0205834
0.00620881
-0.00295478
-0.00641376
-0.0046052
0.00104442
0.00857434
0.0160805
0.0218987
0.0245593
0.0229496
0.0166131
0.00592084
-0.0079249
-0.0230552
-0.0373101
-0.0487634
-0.0562486
-0.0596676
-0.0598523
-0.0579948
-0.0550095
-0.0512542
-0.0466934
-0.041285
-0.0353434
-0.0297188
-0.0256336
-0.0241367
-0.0254996
-0.029012
-0.0333363
-0.0371744
-0.0398125
-0.0412286
-0.0417807
-0.0417797
-0.0412258
-0.0398084
-0.0371695
-0.0333312
-0.029007
-0.0254949
-0.0241325
-0.0256299
-0.029716
-0.0353416
-0.0412844
-0.0466939
-0.0512555
-0.0550112
-0.0579966
-0.059854
-0.0596689
-0.0562496
-0.0487642
-0.0373106
-0.0230555
-0.007925
0.00592091
0.0166132
0.0229496
0.0245588
0.0218976
0.0160787
0.00857199
0.00104175
-0.00460796
-0.00641639
-0.0029571
0.00620709
0.0205826
0.0389215
0.0591225
0.0782995
0.093536
0.102806
0.105272
0.101082
0.0912344
0.0774857
0.061921
0.046282
0.0315949
0.018212
0.00592668
0.00552204
0.0171145
0.0301411
0.0449738
0.0613299
0.0781633
0.0936606
0.105634
0.112173
0.112065
0.104922
0.0913535
0.0731716
0.0531227
0.0340364
0.0181145
0.00682247
0.000898889
0.000124844
0.0032554
0.00846511
0.0139353
0.0180454
0.0193237
0.0166131
0.00941622
-0.00188809
-0.0160742
-0.031326
-0.0456536
-0.0573389
-0.0653051
-0.0693286
-0.069961
-0.0681509
-0.0647795
-0.0603754
-0.0550947
-0.0489338
-0.0420838
-0.035257
-0.0296973
-0.0266814
-0.0267787
-0.0294417
-0.0332679
-0.0367585
-0.0390414
-0.040095
-0.0404051
-0.0404042
-0.0400925
-0.0390378
-0.0367541
-0.0332633
-0.0294372
-0.0267746
-0.0266779
-0.0296945
-0.0352552
-0.042083
-0.0489341
-0.0550958
-0.060377
-0.0647814
-0.0681528
-0.0699627
-0.0693299
-0.0653058
-0.0573391
-0.0456534
-0.0313256
-0.0160737
-0.00188763
0.0094166
0.0166132
0.0193233
0.0180443
0.0139334
0.00846252
0.00325247
0.000121966
0.000896413
0.00682067
0.0181136
0.0340367
0.0531243
0.0731743
0.0913574
0.104927
0.112069
0.112177
0.105637
0.0936625
0.0781638
0.0613293
0.0449725
0.0301398
0.0171135
0.00552166
0.00497313
0.0155767
0.0279228
0.0425234
0.0591547
0.0767672
0.0935162
0.10716
0.115677
0.117667
0.112513
0.100577
0.0834232
0.0635846
0.0437993
0.026349
0.0129006
0.00442005
0.000897978
0.00129031
0.00395703
0.00722765
0.00957601
0.00954764
0.00592084
-0.00188809
-0.013527
-0.027736
-0.0426946
-0.0565225
-0.0677003
-0.0753088
-0.0791148
-0.0794872
-0.0771634
-0.0729707
-0.0675851
-0.0613715
-0.0544226
-0.0468627
-0.0392626
-0.032788
-0.028776
-0.0279438
-0.0298583
-0.0331259
-0.0361792
-0.0380853
-0.0388276
-0.0389537
-0.0389531
-0.0388257
-0.0380825
-0.0361759
-0.0331223
-0.0298549
-0.0279408
-0.0287736
-0.0327864
-0.039262
-0.046863
-0.0544236
-0.0613731
-0.0675868
-0.0729725
-0.0771651
-0.0794886
-0.0791158
-0.0753092
-0.0677001
-0.0565218
-0.0426936
-0.0277351
-0.0135263
-0.00188763
0.00592091
0.00954716
0.00957481
0.00722564
0.00395438
0.00128738
0.00089523
0.00441793
0.0128995
0.0263491
0.0438007
0.0635872
0.0834269
0.100582
0.112518
0.117672
0.11568
0.107162
0.0935171
0.0767666
0.0591529
0.042521
0.0279204
0.015575
0.0049725
0.00435421
0.0138006
0.0252148
0.039211
0.0556205
0.0734218
0.0907882
0.105475
0.115397
0.119015
0.115511
0.105019
0.0888577
0.0693353
0.0490684
0.030367
0.0150339
0.00419997
-0.00196732
-0.00429816
-0.0041941
-0.00311353
-0.00244405
-0.003613
-0.0079249
-0.0160742
-0.027736
-0.0415733
-0.0556904
-0.0682669
-0.0780018
-0.0842391
-0.0868856
-0.0862428
-0.0828619
-0.0774652
-0.0708256
-0.063535
-0.0558735
-0.0479944
-0.0403364
-0.0338669
-0.0297744
-0.0287358
-0.0303704
-0.0333748
-0.0362559
-0.0381011
-0.0388584
-0.0390146
-0.0390142
-0.0388572
-0.0380993
-0.0362537
-0.0333726
-0.0303682
-0.0287341
-0.0297732
-0.0338665
-0.0403369
-0.0479956
-0.0558753
-0.063537
-0.0708274
-0.0774668
-0.0828633
-0.0862439
-0.0868862
-0.0842392
-0.0780013
-0.0682658
-0.0556891
-0.0415721
-0.0277351
-0.0160737
-0.00792499
-0.00361372
-0.00244545
-0.00311557
-0.00419659
-0.00430075
-0.00196957
0.00419851
0.0150336
0.0303681
0.0490709
0.0693389