/*--------------------------------*- C++ -*----------------------------------*\
  =========                 |
  \\      /  F ield         | OpenFOAM: The Open Source CFD Toolbox
   \\    /   O peration     | Website:  https://openfoam.org
    \\  /    A nd           | Version:  10
     \\/     M anipulation  |
\*---------------------------------------------------------------------------*/
FoamFile
{
    format      ascii;
    class       volScalarField;
    location    "99";
    object      h_0;
}
// * * * * * * * * * * * * * * * * * * * * * * * * * * * * * * * * * * * * * //

dimensions      [0 1 0 0 0 0 0];

internalField   nonuniform List<scalar> 
10000
(
-0.000274725
-0.000859145
-0.00151439
-0.00222973
-0.002997
-0.00381909
-0.00466111
-0.00543895
-0.00606684
-0.00647662
-0.00658336
-0.00628529
-0.00553147
-0.00435972
-0.00285295
-0.00109863
0.000784789
0.00261751
0.00419019
0.00534121
0.00602113
0.00629895
0.00630843
0.00616343
0.00589953
0.00549366
0.00494208
0.00432045
0.00377754
0.00345162
0.00334952
0.00329095
0.00298648
0.00220936
0.000956862
-0.000497255
-0.00170865
-0.00228469
-0.00209029
-0.00130688
-0.000302788
0.000603073
0.00131523
0.00194556
0.00263604
0.0033877
0.00404884
0.00446031
0.00460479
0.00461025
0.00461026
0.00460482
0.00446032
0.00404883
0.00338765
0.00263596
0.00194544
0.00131509
0.000602924
-0.000302908
-0.00130693
-0.00209023
-0.00228451
-0.00170835
-0.00049691
0.000957176
0.00220956
0.00298649
0.00329072
0.00334906
0.00345096
0.00377678
0.0043197
0.00494147
0.00549329
0.00589948
0.00616376
0.00630915
0.00630001
0.00602246
0.00534268
0.00419162
0.00261874
0.000785653
-0.00109825
-0.00285312
-0.00436042
-0.00553266
-0.00628681
-0.00658506
-0.00647831
-0.00606837
-0.00544017
-0.00466198
-0.0038196
-0.0029972
-0.00222971
-0.00151426
-0.000859017
-0.000274671
-0.000859145
-0.00267049
-0.00466257
-0.00679129
-0.00902789
-0.0113842
-0.0137671
-0.0159425
-0.0176757
-0.0187855
-0.0190384
-0.0181418
-0.01594
-0.0125291
-0.00813701
-0.0030094
0.00251141
0.0079005
0.0125469
0.0159806
0.0180577
0.0189755
0.0191157
0.0188003
0.0181272
0.017027
0.0154827
0.0136998
0.012096
0.0110709
0.010661
0.0103696
0.0093808
0.00704768
0.00335785
-0.000906915
-0.00446394
-0.00616721
-0.00561135
-0.00331558
-0.000352475
0.00234257
0.0044829
0.00638649
0.00845952
0.0106962
0.0126459
0.013843
0.0142469
0.0142475
0.0142476
0.014247
0.0138431
0.0126459
0.010696
0.00845924
0.00638611
0.00448247
0.00234216
-0.000352775
-0.00331566
-0.00561112
-0.00616665
-0.00446313
-0.000906005
0.00335865
0.00704816
0.00938078
0.010369
0.0106598
0.0110692
0.0120939
0.0136978
0.015481
0.017026
0.0181272
0.0188013
0.0191178
0.0189786
0.0180615
0.0159848
0.012551
0.00790397
0.00251384
-0.00300834
-0.00813749
-0.0125312
-0.0159434
-0.0181462
-0.0190433
-0.0187903
-0.0176801
-0.0159461
-0.0137697
-0.0113858
-0.00902859
-0.00679136
-0.00466232
-0.00267019
-0.000859015
-0.00151439
-0.00466257
-0.00801687
-0.0114689
-0.0149592
-0.0185183
-0.0220267
-0.0251524
-0.0275738
-0.0290615
-0.0292921
-0.0278177
-0.0243709
-0.0190591
-0.0121955
-0.00413454
0.00460031
0.0131871
0.0206684
0.0263113
0.0298905
0.0317005
0.0323076
0.0321807
0.0314494
0.029994
0.0277687
0.0250539
0.022459
0.0206045
0.0195981
0.0187472
0.0168528
0.0129399
0.0069769
0.000148455
-0.00555913
-0.00833196
-0.00749413
-0.003835
0.000954904
0.00537879
0.00895643
0.0121652
0.0156252
0.0193046
0.0224689
0.0243758
0.0249841
0.0249533
0.0249534
0.0249843
0.024376
0.0224689
0.0193043
0.0156247
0.0121645
0.00895572
0.0053782
0.000954579
-0.00383494
-0.00749364
-0.00833107
-0.00555799
0.000149627
0.00697785
0.0129404
0.0168525
0.0187461
0.0195962
0.0206019
0.022456
0.025051
0.0277664
0.0299926
0.0314494
0.0321823
0.0323108
0.0317052
0.0298963
0.0263176
0.0206745
0.0131923
0.00460391
-0.004133
-0.0121962
-0.0190621
-0.024376
-0.0278243
-0.0292995
-0.0290689
-0.0275806
-0.0251581
-0.022031
-0.018521
-0.0149606
-0.0114694
-0.00801679
-0.00466232
-0.00151426
-0.00222973
-0.00679129
-0.0114689
-0.0160499
-0.0204323
-0.0246803
-0.0286947
-0.0321202
-0.0346374
-0.0360601
-0.0360577
-0.0340799
-0.0297414
-0.0230975
-0.0144611
-0.00421735
0.00700302
0.0181663
0.0280633
0.0357738
0.0410089
0.0441053
0.0457085
0.0463314
0.0460808
0.044776
0.0423238
0.0390095
0.0355346
0.0326835
0.0306888
0.0288245
0.0257052
0.0201555
0.0121131
0.0030273
-0.00459101
-0.00837373
-0.00737239
-0.00255431
0.00388558
0.0099563
0.0149748
0.0195157
0.0243549
0.0294216
0.0337285
0.0362946
0.0370906
0.0370298
0.0370299
0.0370909
0.0362949
0.0337285
0.0294212
0.0243541
0.0195147
0.0149739
0.00995572
0.00388544
-0.00255394
-0.00737155
-0.00837257
-0.00458975
0.0030284
0.0121138
0.0201556
0.0257046
0.0288231
0.0306865
0.0326806
0.0355314
0.0390065
0.0423214
0.0447747
0.0460811
0.0463336
0.0457126
0.0441111
0.041016
0.0357814
0.0280707
0.0181725
0.00700726
-0.00421557
-0.0144621
-0.0231012
-0.0297475
-0.0340878
-0.0360667
-0.0360693
-0.0346461
-0.0321276
-0.0287006
-0.0246844
-0.0204348
-0.0160512
-0.0114694
-0.00679136
-0.00222971
-0.002997
-0.00902789
-0.0149592
-0.0204323
-0.0252911
-0.0296492
-0.0334794
-0.0364883
-0.0384587
-0.0393461
-0.0389031
-0.0365367
-0.0317439
-0.024464
-0.0149167
-0.00342607
0.0093633
0.0223167
0.0340931
0.0436769
0.050735
0.0555756
0.0587939
0.0608215
0.0616746
0.0610969
0.0589315
0.055406
0.0512169
0.0472512
0.0439134
0.0406071
0.0359616
0.0287306
0.01881
0.00777383
-0.00152113
-0.00626522
-0.00523124
0.000533716
0.00844418
0.016073
0.0225133
0.0283724
0.0345358
0.0409051
0.046292
0.0495176
0.0505531
0.0505123
0.0505124
0.0505533
0.0495176
0.0462917
0.0409044
0.0345348
0.0283714
0.0225125
0.0160726
0.00844436
0.000534426
-0.00523011
-0.00626392
-0.00151996
0.0077746
0.0188101
0.02873
0.0359603
0.0406052
0.043911
0.0472485
0.0512141
0.0554035
0.0589297
0.0610963
0.0616756
0.0608243
0.0587985
0.0555819
0.0507425
0.0436848
0.0341006
0.022323
0.0093676
-0.0034243
-0.0149178
-0.0244678
-0.0317502
-0.036545
-0.0389126
-0.0393561
-0.0384684
-0.036497
-0.0334866
-0.0296547
-0.025295
-0.0204348
-0.0149606
-0.00902858
-0.0029972
-0.00381909
-0.0113842
-0.0185183
-0.0246803
-0.0296492
-0.0336004
-0.036628
-0.038585
-0.0394518
-0.0394137
-0.0383844
-0.0357825
-0.0309913
-0.0237817
-0.0141967
-0.00241193
0.0110079
0.0249392
0.0380279
0.0492514
0.0582489
0.0652317
0.0706231
0.0746597
0.0772049
0.0779103
0.0765415
0.0732209
0.0685622
0.0634971
0.0586302
0.0536242
0.04729
0.0384165
0.0268439
0.0141524
0.00339427
-0.00227323
-0.00133401
0.00517774
0.0143887
0.0234798
0.0312918
0.038405
0.0457854
0.0533401
0.0597493
0.0636763
0.0650606
0.0651301
0.0651301
0.0650605
0.063676
0.0597486
0.0533391
0.0457844
0.0384041
0.0312913
0.0234797
0.0143891
0.0051786
-0.00133287
-0.00227209
0.00339511
0.0141527
0.0268434
0.0384153
0.0472882
0.053622
0.0586279
0.0634948
0.0685602
0.0732194
0.0765408
0.0779108
0.0772068
0.074663
0.0706279
0.0652378
0.0582559
0.0492587
0.0380347
0.0249448
0.0110117
-0.00241042
-0.0141977
-0.0237852
-0.0309971
-0.0357902
-0.0383934
-0.0394235
-0.0394617
-0.0385944
-0.0366363
-0.0336074
-0.0296547
-0.0246844
-0.018521
-0.0113858
-0.00381959
-0.00466111
-0.0137671
-0.0220267
-0.0286947
-0.0334794
-0.036628
-0.0383986
-0.0388649
-0.0382816
-0.0371247
-0.035517
-0.0329236
-0.0286172
-0.0221622
-0.0133608
-0.00216882
0.0110095
0.0251549
0.0389941
0.0515628
0.0624834
0.0718219
0.0797479
0.0862292
0.0909348
0.0934056
0.0933096
0.0906259
0.0858294
0.0798477
0.0734913
0.0667642
0.0587735
0.0484162
0.0354633
0.0214102
0.00938765
0.00282291
0.0035277
0.0105646
0.0208734
0.031295
0.0404008
0.0486939
0.0571958
0.0658487
0.0732633
0.0779778
0.079858
0.0801508
0.0801506
0.0798576
0.077977
0.0732623
0.0658477
0.0571949
0.0486933
0.0404006
0.0312953
0.0208739
0.0105653
0.0035285
0.00282358
0.00938796
0.0214099
0.0354623
0.0484145
0.0587713
0.066762
0.0734894
0.0798462
0.0858286
0.0906259
0.0933105
0.0934075
0.0909376
0.0862331
0.0797527
0.0718274
0.0624892
0.0515686
0.0389993
0.0251592
0.0110123
-0.00216775
-0.0133616
-0.022165
-0.0286219
-0.0329299
-0.0355247
-0.0371335
-0.038291
-0.0388745
-0.0384078
-0.0366363
-0.0334866
-0.0287006
-0.022031
-0.0137697
-0.00466197
-0.00543895
-0.0159425
-0.0251524
-0.0321202
-0.0364883
-0.038585
-0.0388649
-0.0376761
-0.0355932
-0.0334029
-0.0314443
-0.0292381
-0.0259464
-0.020905
-0.0136358
-0.00382472
0.00834457
0.0220226
0.036072
0.049619
0.0622716
0.0739315
0.0844884
0.0936213
0.10079
0.105403
0.106998
0.105376
0.100837
0.0942692
0.0866773
0.0784401
0.0690224
0.0574731
0.0434841
0.0284007
0.0153354
0.00790658
0.00821071
0.0154802
0.0265853
0.0381188
0.0484057
0.0578402
0.06746
0.0772357
0.0857323
0.0913752
0.0939193
0.0945517
0.0945515
0.0939188
0.0913743
0.0857312
0.0772347
0.0674592
0.0578399
0.0484057
0.0381192
0.0265857
0.0154805
0.00821095
0.00790661
0.0153351
0.0283999
0.0434827
0.0574712
0.0690203
0.0784382
0.086676
0.0942687
0.100838
0.105377
0.107
0.105406
0.100794
0.0936255
0.0844928
0.0739358
0.0622758
0.0496228
0.0360753
0.0220251
0.00834612
-0.00382422
-0.0136364
-0.0209068
-0.0259496
-0.0292427
-0.0314502
-0.0334101
-0.0356015
-0.0376853
-0.0388745
-0.0385944
-0.036497
-0.0321276
-0.0251581
-0.0159461
-0.00544017
-0.00606684
-0.0176757
-0.0275738
-0.0346374
-0.0384587
-0.0394518
-0.0382816
-0.0355932
-0.032285
-0.0294277
-0.0275439
-0.0261958
-0.024435
-0.0213671
-0.016223
-0.00839727
0.00218063
0.014863
0.0286619
0.0427882
0.0568294
0.0705347
0.0835457
0.0952853
0.105015
0.111991
0.115581
0.11538
0.111501
0.104775
0.0963804
0.0870594
0.0766436
0.0643496
0.0497869
0.0341043
0.0203083
0.0121134
0.0118596
0.0190045
0.0304857
0.0427937
0.0540887
0.0646512
0.075478
0.0865139
0.0962519
0.102994
0.106359
0.107429
0.107429
0.106359
0.102993
0.0962509
0.0865131
0.0754774
0.0646509
0.0540887
0.0427939
0.0304858
0.0190044
0.0118593
0.0121128
0.0203074
0.0341031
0.0497853
0.0643478
0.0766419
0.0870581
0.09638
0.104776
0.111503
0.115383
0.115584
0.111995
0.10502
0.0952895
0.0835495
0.0705378
0.0568317
0.0427898
0.0286629
0.0148635
0.00218086
-0.00839735
-0.0162234
-0.021368
-0.0244367
-0.0261984
-0.0275478
-0.0294331
-0.032292
-0.0356015
-0.038291
-0.0394617
-0.0384684
-0.034646
-0.0275806
-0.0176801
-0.00606837
-0.00647662
-0.0187855
-0.0290615
-0.0360601
-0.0393461
-0.0394137
-0.0371247
-0.0334029
-0.0294277
-0.0264841
-0.0252145
-0.0251959
-0.0253757
-0.0246473
-0.0219702
-0.0164583
-0.00778702
0.00359246
0.0168146
0.0311363
0.0461118
0.0613789
0.0764117
0.0904537
0.102602
0.111943
0.117643
0.11908
0.116195
0.109776
0.101147
0.0913634
0.0805771
0.068153
0.053615
0.0378886
0.0237982
0.0150505
0.0141589
0.0208349
0.0322187
0.044876
0.0569293
0.06857
0.0806957
0.0931444
0.104282
0.112265
0.116561
0.118131
0.118131
0.116561
0.112264
0.104282
0.0931437
0.0806951
0.0685695
0.0569291
0.0448757
0.0322183
0.0208342
0.0141581
0.0150494
0.023797
0.0378872
0.0536135
0.0681516
0.080576
0.0913631
0.101148
0.109777
0.116198
0.119084
0.117648
0.111948
0.102607
0.0904576
0.0764146
0.0613806
0.0461124
0.0311359
0.0168136
0.00359131
-0.00778802
-0.0164589
-0.0219705
-0.0246474
-0.025376
-0.0251968
-0.0252164
-0.0264877
-0.0294331
-0.0334101
-0.0371335
-0.0394235
-0.0393561
-0.0360693
-0.0290689
-0.0187903
-0.00647831
-0.00658336
-0.0190384
-0.0292921
-0.0360577
-0.0389031
-0.0383844
-0.035517
-0.0314443
-0.0275439
-0.0252145
-0.0251381
-0.0268761
-0.0292819
-0.0310678
-0.0309606
-0.0278327
-0.0211397
-0.0111755
0.00125933
0.0154093
0.0307823
0.0469678
0.0633854
0.0792
0.0933881
0.104857
0.112549
0.115641
0.113957
0.108279
0.10006
0.0905793
0.0802045
0.0683857
0.0545481
0.0393904
0.0255101
0.0165183
0.015023
0.0209872
0.0318554
0.0444305
0.056933
0.0695111
0.0829267
0.0968442
0.109456
0.118749
0.124035
0.126138
0.126138
0.124035
0.118749
0.109455
0.0968436
0.0829261
0.0695105
0.0569322
0.0444296
0.0318543
0.0209859
0.0150217
0.016517
0.0255089
0.0393892
0.0545471
0.068385
0.0802044
0.0905801
0.100062
0.108282
0.113961
0.115646
0.112554
0.104861
0.0933921
0.0792031
0.0633873
0.0469683
0.0307815
0.0154074
0.00125685
-0.011178
-0.0211417
-0.0278338
-0.0309608
-0.0310673
-0.0292811
-0.0268756
-0.0251386
-0.0252164
-0.0275478
-0.0314502
-0.0355247
-0.0383934
-0.0389126
-0.0360667
-0.0292995
-0.0190433
-0.00658506
-0.00628529
-0.0181418
-0.0278177
-0.0340799
-0.0365367
-0.0357825
-0.0329236
-0.0292381
-0.0261958
-0.0251959
-0.0268761
-0.030749
-0.0355822
-0.0399352
-0.0423459
-0.0415029
-0.0367039
-0.0281488
-0.0166438
-0.00301713
0.0121853
0.0285741
0.0456309
0.0625406
0.0781989
0.091329
0.100651
0.105189
0.104735
0.100139
0.0929635
0.0845977
0.0754724
0.0650129
0.0525195
0.0384849
0.0252831
0.0163815
0.0144143
0.0195654
0.02963
0.0417555
0.0543692
0.0676328
0.0821703
0.0974509
0.111479
0.122068
0.128354
0.131006
0.131006
0.128354
0.122067
0.111478
0.0974505
0.0821698
0.067632
0.054368
0.041754
0.0296281
0.0195635
0.0144126
0.0163802
0.0252822
0.0384844
0.0525193
0.0650132
0.0754734
0.0845997
0.0929666
0.100143
0.10474
0.105194
0.100655
0.0913328
0.0782019
0.0625425
0.0456317
0.0285735
0.0121834
-0.00301998
-0.0166472
-0.0281521
-0.0367065
-0.0415046
-0.0423464
-0.0399346
-0.035581
-0.0307479
-0.0268756
-0.0251968
-0.0261984
-0.0292426
-0.0329299
-0.0357902
-0.0365449
-0.0340878
-0.0278243
-0.0181462
-0.00628682
-0.00553147
-0.01594
-0.0243709
-0.0297414
-0.0317439
-0.0309913
-0.0286172
-0.0259464
-0.024435
-0.0253757
-0.0292819
-0.0355822
-0.0429548
-0.0498221
-0.0545725
-0.0557785
-0.0526625
-0.0454085
-0.0348938
-0.0220667
-0.00752967
0.00840489
0.0253681
0.0426361
0.0590536
0.0731678
0.0835102
0.0890374
0.0896296
0.0862837
0.0806571
0.0741229
0.066997
0.0585467
0.047914
0.0354302
0.02329
0.0148071
0.0125812
0.0169584
0.0260734
0.0374625
0.0498291
0.0634058
0.0787123
0.0950459
0.110248
0.121977
0.129185
0.132357
0.132357
0.129184
0.121976
0.110248
0.0950453
0.0787118
0.0634049
0.0498277
0.0374605
0.0260711
0.0169561
0.0125794
0.014806
0.0232897
0.0354306
0.0479149
0.058548
0.0669991
0.0741259
0.0806609
0.0862881
0.0896343
0.0890418
0.0835138
0.0731705
0.0590553
0.0426368
0.0253677
0.00840342
-0.00753211
-0.0220699
-0.0348974
-0.045412
-0.0526655
-0.0557804
-0.0545733
-0.0498219
-0.0429538
-0.035581
-0.0292811
-0.0253759
-0.0244366
-0.0259496
-0.0286219
-0.0309971
-0.0317502
-0.0297475
-0.024376
-0.0159434
-0.00553266
-0.00435972
-0.0125291
-0.0190591
-0.0230975
-0.024464
-0.0237817
-0.0221622
-0.020905
-0.0213671
-0.0246473
-0.0310678
-0.0399352
-0.0498221
-0.0590152
-0.0657863
-0.0686663
-0.0668961
-0.0607217
-0.0511402
-0.0392425
-0.0256877
-0.0106891
0.00556827
0.0224807
0.0388621
0.0531167
0.0636594
0.0694971
0.0707229
0.0685561
0.0647267
0.0604734
0.0558399
0.0498219
0.0413859
0.0307597
0.0200183
0.0123155
0.0101422
0.0139139
0.022048
0.0324684
0.0441951
0.0575857
0.073109
0.089943
0.105823
0.118295
0.12616
0.129723
0.129723
0.126159
0.118294
0.105822
0.0899421
0.0731082
0.0575847
0.0441935
0.0324664
0.0220457
0.0139118
0.0101406
0.012315
0.0200187
0.030761
0.0413878
0.0498243
0.0558429
0.060477
0.0647309
0.0685606
0.0707271
0.0695007
0.063662
0.0531182
0.0388625
0.0224801
0.00556682
-0.0106913
-0.0256904
-0.0392455
-0.0511435
-0.0607249
-0.066899
-0.0686684
-0.0657875
-0.0590156
-0.0498219
-0.0399346
-0.0310673
-0.0246474
-0.021368
-0.0209068
-0.022165
-0.0237852
-0.0244678
-0.0231012
-0.0190621
-0.0125312
-0.00436043
-0.00285295
-0.00813701
-0.0121955
-0.0144611
-0.0149167
-0.0141967
-0.0133608
-0.0136358
-0.016223
-0.0219702
-0.0309606
-0.0423459
-0.0545725
-0.0657863
-0.0741723
-0.0782908
-0.077488
-0.0721311
-0.063352
-0.0523766
-0.0399207
-0.0261166
-0.010993
0.00494977
0.0205098
0.0340068
0.0438407
0.0491895
0.0504605
0.04914
0.0470022
0.0450707
0.0430285
0.0395516
0.0334467
0.0248945
0.0158875
0.00938342
0.00765799
0.0110757
0.0182567
0.0274926
0.0381451
0.0507449
0.0657649
0.0823246
0.0981222
0.110676
0.118711
0.122408
0.122407
0.11871
0.110675
0.0981206
0.0823233
0.0657637
0.0507436
0.0381436
0.0274908
0.0182548
0.0110741
0.00765717
0.00938358
0.0158887
0.0248966
0.0334496
0.0395551
0.0430323
0.0450748
0.0470063
0.0491439
0.0504638
0.049192
0.0438421
0.0340071
0.020509
0.0049481
-0.0109953
-0.0261192
-0.0399234
-0.0523794
-0.0633548
-0.0721338
-0.0774905
-0.078293
-0.074174
-0.0657875
-0.0545733
-0.0423464
-0.0309608
-0.0219705
-0.0162234
-0.0136364
-0.0133616
-0.0141977
-0.0149178
-0.0144621
-0.0121962
-0.0081375
-0.00285313
-0.00109863
-0.0030094
-0.00413454
-0.00421735
-0.00342607
-0.00241193
-0.00216882
-0.00382472
-0.00839727
-0.0164583
-0.0278327
-0.0415029
-0.0557785
-0.0686663
-0.0782908
-0.0832948
-0.0831838
-0.0784642
-0.0703749
-0.0602412
-0.0488379
-0.0362735
-0.0225019
-0.00797303
0.00610752
0.0180511
0.0263479
0.0304371
0.0310879
0.0300567
0.0291403
0.0291298
0.0293564
0.0282101
0.0243805
0.018031
0.0110586
0.00615027
0.00524574
0.00854008
0.0147828
0.0226108
0.0317391
0.0429026
0.0566235
0.0720225
0.0868406
0.0986688
0.106261
0.109763
0.109762
0.10626
0.098667
0.0868388
0.0720208
0.056622
0.0429011
0.0317377
0.0226095
0.0147818
0.00853956
0.00524595
0.00615135
0.0110606
0.0180338
0.024384
0.0282141
0.0293606
0.0291339
0.0291439
0.0300597
0.03109
0.0304381
0.026348
0.0180502
0.0061058
-0.0079754
-0.0225046
-0.0362763
-0.0488405
-0.0602435
-0.0703771
-0.0784663
-0.0831859
-0.083297
-0.078293
-0.0686684
-0.0557804
-0.0415045
-0.0278338
-0.0164589
-0.00839732
-0.00382419
-0.00216773
-0.00241041
-0.00342429
-0.00421557
-0.00413301
-0.00300835
-0.00109826
0.000784789
0.00251141
0.00460031
0.00700302
0.0093633
0.0110079
0.0110095
0.00834457
0.00218063
-0.00778702
-0.0211397
-0.0367039
-0.0526625
-0.0668961
-0.077488
-0.0831838
-0.0836515
-0.0795024
-0.0720204
-0.0625814
-0.0520346
-0.0405526
-0.02813
-0.0152406
-0.0030816
0.0067304
0.0128637
0.0150588
0.0144334
0.0129849
0.0125343
0.0136977
0.0155518
0.0162934
0.0145368
0.0104079
0.00564225
0.00256701
0.00269596
0.00598183
0.0112549
0.0174666
0.0246668
0.0337945
0.0454529
0.0588318
0.0718103
0.0821556
0.0887458
0.0917551
0.0917547
0.0887447
0.0821541
0.0718086
0.0588302
0.0454514
0.0337931
0.0246656
0.0174659
0.0112548
0.00598248
0.00269736
0.00256909
0.00564495
0.0104111
0.0145406
0.0162975
0.0155559
0.0137014
0.0125372
0.0129867
0.0144341
0.0150585
0.0128625
0.0067286
-0.00308391
-0.0152432
-0.0281328
-0.0405553
-0.052037
-0.0625834
-0.0720221
-0.0795041
-0.0836533
-0.0831859
-0.0774905
-0.066899
-0.0526655
-0.0367065
-0.0211417
-0.00778799
0.00218089
0.00834614
0.0110123
0.0110117
0.0093676
0.00700726
0.0046039
0.00251383
0.00078564
0.00261751
0.0079005
0.0131871
0.0181663
0.0223167
0.0249392
0.0251549
0.0220226
0.014863
0.00359246
-0.0111755
-0.0281488
-0.0454085
-0.0607217
-0.0721311
-0.0784642
-0.0795024
-0.0758913
-0.0688869
-0.0598829
-0.04984
-0.0391002
-0.0278235
-0.0165815
-0.00655141
0.000795002
0.00436574
0.00419849
0.00170332
-0.000920805
-0.00179496
-0.000364648
0.00233963
0.00442684
0.00445013
0.0024292
-0.000155511
-0.00140005
-0.000236229
0.00304218
0.00732072
0.0118064
0.0168123
0.0234393
0.0323935
0.0430229
0.0534633
0.0617572
0.0669581
0.0692829
0.0692826
0.0669573
0.0617562
0.0534622
0.0430218
0.0323925
0.0234383
0.0168117
0.0118064
0.00732154
0.0030439
-0.000233758
-0.00139708
-0.000152258
0.00243264
0.00445372
0.00443051
0.00234311
-0.000361746
-0.00179304
-0.000920119
0.00170281
0.00419702
0.00436362
0.00079253
-0.00655404
-0.0165842
-0.0278261
-0.0391026
-0.0498421
-0.0598847
-0.0688884
-0.0758927
-0.0795041
-0.0784663
-0.0721338
-0.0607249
-0.045412
-0.0281521
-0.011178
0.00359134
0.0148636
0.0220251
0.0251592
0.0249448
0.022323
0.0181725
0.0131923
0.00790396
0.00261872
0.00419019
0.0125469
0.0206684
0.0280633
0.0340931
0.0380279
0.0389941
0.036072
0.0286619
0.0168146
0.00125933
-0.0166438
-0.0348938
-0.0511402
-0.063352
-0.0703749
-0.0720204
-0.0688869
-0.0621532
-0.0532302
-0.0432485
-0.0328194
-0.02237
-0.0126261
-0.00473442
3.00533e-05
0.000849296
-0.00197088
-0.00679696
-0.011264
-0.0133836
-0.0125338
-0.00970972
-0.00680798
-0.0053521
-0.00551345
-0.00614531
-0.0057753
-0.00372388
-0.000477555
0.0028867
0.00573286
0.00850995
0.012399
0.0182231
0.0255915
0.0330279
0.0389373
0.042562
0.0441262
0.0441261
0.0425618
0.0389371
0.0330278
0.0255914
0.018223
0.0123989
0.00851011
0.00573361
0.00288831
-0.00047504
-0.00372067
-0.00577178
-0.00614179
-0.00551011
-0.00534899
-0.00680511
-0.00970724
-0.012532
-0.0133828
-0.0112643
-0.00679838
-0.00197315
0.000846547
2.71837e-05
-0.00473716
-0.0126286
-0.0223722
-0.0328214
-0.0432503
-0.0532318
-0.0621547
-0.0688884
-0.0720221
-0.0703771
-0.0633548
-0.0511435
-0.0348974
-0.0166471
0.00125687
0.0168137
0.0286629
0.0360753
0.0389994
0.0380347
0.0341006
0.0280707
0.0206745
0.012551
0.00419161
0.00534121
0.0159806
0.0263113
0.0357738
0.0436769
0.0492514
0.0515628
0.049619
0.0427882
0.0311363
0.0154093
-0.00301713
-0.0220667
-0.0392425
-0.0523766
-0.0602412
-0.0625814
-0.0598829
-0.0532302
-0.0440813
-0.0337941
-0.0233166
-0.0133964
-0.00493986
0.000940937
0.00318993
0.00127114
-0.00427694
-0.0116603
-0.0183818
-0.022307
-0.0226515
-0.0202757
-0.0170322
-0.0145399
-0.0132165
-0.0122766
-0.0106313
-0.00788487
-0.00463727
-0.00194726
-0.000415198
0.000387739
0.00161887
0.00421717
0.00813909
0.0124049
0.0158453
0.017885
0.0187055
0.0187057
0.0178854
0.015846
0.0124059
0.00814023
0.00421829
0.00161995
0.000388973
-0.000413527
-0.00194493
-0.00463425
-0.00788139
-0.0106277
-0.0122733
-0.0132136
-0.0145375
-0.0170303
-0.0202744
-0.0226509
-0.0223072
-0.018383
-0.0116622
-0.00427954
0.00126821
0.00318701
0.000938281
-0.00494211
-0.0133982
-0.0233182
-0.0337955
-0.0440828
-0.0532318
-0.0598847
-0.0625834
-0.0602435
-0.0523794
-0.0392455
-0.0220699
-0.00301997
0.0154074
0.031136
0.0427898
0.0496228
0.0515686
0.0492587
0.0436848
0.0357814
0.0263176
0.0159847
0.00534267
0.00602113
0.0180577
0.0298905
0.0410089
0.050735
0.0582489
0.0624834
0.0622716
0.0568294
0.0461118
0.0307823
0.0121853
-0.00752967
-0.0256877
-0.0399207
-0.0488379
-0.0520346
-0.04984
-0.0432485
-0.0337941
-0.0230908
-0.0124357
-0.00289513
0.00444775
0.00851126
0.00844907
0.00399303
-0.00411822
-0.0139831
-0.0230196
-0.0289583
-0.0308235
-0.0292933
-0.0261394
-0.0230623
-0.020722
-0.0186642
-0.0161038
-0.0128203
-0.00945137
-0.00705294
-0.0062987
-0.00692586
-0.00790783
-0.00821759
-0.00751611
-0.00623626
-0.00509507
-0.00449527
-0.00433129
-0.00433089
-0.0044941
-0.00509327
-0.00623404
-0.00751372
-0.00821521
-0.00790549
-0.00692343
-0.00629601
-0.00704992
-0.0094481
-0.012817
-0.0161007
-0.0186616
-0.0207199
-0.0230608
-0.0261384
-0.029293
-0.0308239
-0.0289593
-0.0230212
-0.0139852
-0.00412071
0.00399039
0.00844648
0.00850893
0.0044458
-0.0028967
-0.012437
-0.023092
-0.0337955
-0.0432503
-0.0498421
-0.0520371
-0.0488405
-0.0399234
-0.0256904
-0.0075321
0.0121834
0.0307815
0.0461124
0.0568317
0.0622758
0.0624892
0.0582559
0.0507425
0.041016
0.0298963
0.0180614
0.00602245
0.00629895
0.0189755
0.0317005
0.0441053
0.0555756
0.0652317
0.0718219
0.0739315
0.0705347
0.0613789
0.0469678
0.0285741
0.00840489
-0.0106891
-0.0261166
-0.0362735
-0.0405526
-0.0391002
-0.0328194
-0.0233166
-0.0124357
-0.00177727
0.00732216
0.0136272
0.0160739
0.0139911
0.0073467
-0.00295154
-0.0149442
-0.026037
-0.033896
-0.0373886
-0.0369951
-0.0343533
-0.0311802
-0.0283143
-0.0255693
-0.0223886
-0.018645
-0.0149555
-0.0123735
-0.0117156
-0.0129954
-0.0154173
-0.0179256
-0.0198243
-0.0210128
-0.021767
-0.0223274
-0.0226756
-0.022675
-0.0223255
-0.0217642
-0.0210094
-0.0198207
-0.0179221
-0.0154139
-0.0129919
-0.011712
-0.0123699
-0.0149522
-0.0186422
-0.0223864
-0.0255677
-0.0283132
-0.0311796
-0.0343533
-0.0369956
-0.0373897
-0.0338975
-0.0260388
-0.0149462
-0.00295358
0.0073447
0.0139892
0.0160721
0.0136257
0.00732079
-0.00177852
-0.012437
-0.0233182
-0.0328214
-0.0391026
-0.0405553
-0.0362763
-0.0261192
-0.0106913
0.00840343
0.0285735
0.0469683
0.0613806
0.0705378
0.0739359
0.0718274
0.0652378
0.0555819
0.0441111
0.0317052
0.0189786
0.00630001
0.00630843
0.0191157
0.0323076
0.0457085
0.0587939
0.0706231
0.0797479
0.0844884
0.0835457
0.0764117
0.0633854
0.0456309
0.0253681
0.00556827
-0.010993
-0.0225019
-0.02813
-0.0278235
-0.02237
-0.0133964
-0.00289513
0.00732216
0.0157255
0.0209625
0.0219682
0.0181964
0.00980316
-0.00217047
-0.0157604
-0.028451
-0.0379513
-0.0430416
-0.043997
-0.0422436
-0.0394087
-0.0364201
-0.0332983
-0.0296682
-0.0254487
-0.0211917
-0.017927
-0.0166379
-0.0176823
-0.020582
-0.0243324
-0.0279477
-0.0308507
-0.0329165
-0.0342437
-0.0349071
-0.0349062
-0.0342411
-0.0329128
-0.0308464
-0.0279433
-0.024328
-0.0205777
-0.0176781
-0.0166338
-0.0179232
-0.0211886
-0.0254465
-0.029667
-0.0332979
-0.0364202
-0.0394091
-0.0422443
-0.0439981
-0.043043
-0.0379529
-0.0284527
-0.015762
-0.00217187
0.00980196
0.0181953
0.0219672
0.0209614
0.0157243
0.00732079
-0.0028967
-0.0133982
-0.0223723
-0.0278261
-0.0281329
-0.0225046
-0.0109953
0.00556682
0.0253677
0.0456317
0.0633873
0.0764146
0.0835495
0.0844928
0.0797527
0.0706279
0.0587985
0.0457126
0.0323108
0.0191178
0.00630914
0.00616343
0.0188003
0.0321807
0.0463314
0.0608215
0.0746597
0.0862292
0.0936213
0.0952853
0.0904537
0.0792
0.0625406
0.0426361
0.0224807
0.00494977
-0.00797303
-0.0152406
-0.0165815
-0.0126261
-0.00493986
0.00444775
0.0136272
0.0209625
0.0250231
0.0247247
0.0195877
0.00989696
-0.0032176
-0.0178353
-0.0315994
-0.0423618
-0.0488871
-0.0512423
-0.0505657
-0.0482938
-0.0453689
-0.041985
-0.0379341
-0.0331581
-0.0281064
-0.0237463
-0.0212111
-0.0212233
-0.0236772
-0.0276931
-0.0320756
-0.0358478
-0.0385494
-0.0401794
-0.0409242
-0.0409232
-0.0401766
-0.0385452
-0.0358429
-0.0320705
-0.0276881
-0.0236724
-0.0212188
-0.0212069
-0.0237427
-0.0281038
-0.0331567
-0.0379338
-0.0419856
-0.04537
-0.0482951
-0.050567
-0.0512437
-0.0488884
-0.0423631
-0.0316006
-0.0178364
-0.00321833
0.00989649
0.0195874
0.0247243
0.0250224
0.0209614
0.0136257
0.0044458
-0.00494212
-0.0126286
-0.0165842
-0.0152433
-0.00797541
0.00494809
0.0224801
0.0426368
0.0625425
0.0792031
0.0904576
0.0952895
0.0936255
0.0862331
0.074663
0.0608243
0.0463336
0.0321822
0.0188013
0.00616375
0.00589953
0.0181272
0.0314494
0.0460808
0.0616746
0.0772049
0.0909348
0.10079
0.105015
0.102602
0.0933881
0.0781989
0.0590536
0.0388621
0.0205098
0.00610752
-0.0030816
-0.00655141
-0.00473442
0.000940937
0.00851126
0.0160739
0.0219682
0.0247247
0.0232243
0.0169964
0.00639025
-0.00741645
-0.0225698
-0.0369048
-0.0484721
-0.0560765
-0.0595972
-0.0598549
-0.0580423
-0.0550804
-0.0513319
-0.0467619
-0.0413297
-0.0353564
-0.0297048
-0.025608
-0.024116
-0.0254922
-0.0290207
-0.0333707
-0.0372585
-0.0399747
-0.0414776
-0.0420879
-0.0420869
-0.0414748
-0.0399706
-0.0372536
-0.0333655
-0.0290157
-0.0254875
-0.0241118
-0.0256043
-0.0297019
-0.0353546
-0.0413291
-0.0467624
-0.0513331
-0.0550821
-0.0580441
-0.0598566
-0.0595986
-0.0560776
-0.0484729
-0.0369053
-0.0225701
-0.00741654
0.00639033
0.0169966
0.0232243
0.0247243
0.0219672
0.0160721
0.00850893
0.000938275
-0.00473716
-0.00655405
-0.00308393
0.00610578
0.020509
0.0388625
0.0590553
0.0782019
0.0933921
0.102607
0.10502
0.100794
0.0909376
0.0772068
0.0616756
0.0460811
0.0314494
0.0181272
0.00589948
0.00549366
0.017027
0.029994
0.044776
0.0610969
0.0779103
0.0934056
0.105403
0.111991
0.111943
0.104857
0.091329
0.0731678
0.0531167
0.0340068
0.0180511
0.0067304
0.000795002
3.00533e-05
0.00318993
0.00844907
0.0139911
0.0181964
0.0195877
0.0169964
0.00990844
-0.00131819
-0.0154788
-0.0307675
-0.045186
-0.0569907
-0.0650758
-0.0691972
-0.0698995
-0.0681358
-0.0647953
-0.0604094
-0.055131
-0.048956
-0.0420848
-0.0352474
-0.0297012
-0.0267199
-0.0268559
-0.029548
-0.0333985
-0.0369281
-0.0392771
-0.0404093
-0.0407743
-0.0407734
-0.0404069
-0.0392735
-0.0369237
-0.0333939
-0.0295435
-0.0268519
-0.0267164
-0.0296984
-0.0352456
-0.042084
-0.0489562
-0.0551321
-0.060411
-0.0647972
-0.0681377
-0.0699011
-0.0691984
-0.0650765
-0.0569908
-0.0451858
-0.0307671
-0.0154783
-0.00131772
0.00990883
0.0169966
0.0195874
0.0181953
0.0139892
0.00844648
0.003187
2.71732e-05
0.000792517
0.00672859
0.0180502
0.034007
0.0531182
0.0731705
0.0913328
0.104861
0.111948
0.111995
0.105406
0.0934075
0.0779108
0.0610963
0.0447747
0.0299926
0.017026
0.00549328
0.00494208
0.0154827
0.0277687
0.0423238
0.0589315
0.0765415
0.0933096
0.106998
0.115581
0.117643
0.112549
0.100651
0.0835102
0.0636594
0.0438407
0.0263479
0.0128637
0.00436574
0.000849296
0.00127114
0.00399303
0.0073467
0.00980316
0.00989696
0.00639025
-0.00131819
-0.0128945
-0.0270949
-0.0421047
-0.0560325
-0.0673325
-0.0750565
-0.0789527
-0.0793865
-0.0771042
-0.0729434
-0.0675821
-0.0613791
-0.054424
-0.0468516
-0.0392547
-0.0328153
-0.0288653
-0.0280971
-0.0300557
-0.0333489
-0.0364323
-0.0383918
-0.0392022
-0.0393776
-0.039377
-0.0392003
-0.038389
-0.036429
-0.0333454
-0.0300523
-0.0280941
-0.0288629
-0.0328137
-0.0392541
-0.046852
-0.0544251
-0.0613807
-0.0675839
-0.0729452
-0.0771059
-0.0793879
-0.0789537
-0.0750569
-0.0673322
-0.0560317
-0.0421037
-0.0270939
-0.0128938
-0.00131772
0.00639034
0.0098965
0.00980197
0.0073447
0.00399038
0.0012682
0.000846534
0.00436361
0.0128625
0.0263479
0.0438421
0.063662
0.0835138
0.100655
0.112554
0.117648
0.115584
0.107
0.0933105
0.0765408
0.0589297
0.0423214
0.0277664
0.015481
0.00494146
0.00432045
0.0136998
0.0250539
0.0390095
0.055406
0.0732209
0.0906259
0.105376
0.11538
0.11908
0.115641
0.105189
0.0890374
0.0694971
0.0491895
0.0304371
0.0150588
0.00419849
-0.00197088
-0.00427694
-0.00411822
-0.00295154
-0.00217047
-0.0032176
-0.00741645
-0.0154788
-0.0270949
-0.0409393
-0.0551186
-0.0677998
-0.0776555
-0.084001
-0.0867258
-0.0861315
-0.0827827
-0.077415
-0.0708027
-0.0635287
-0.0558669
-0.0479813
-0.0403363
-0.0339187
-0.0299109
-0.0289591
-0.0306527
-0.0336859
-0.0365895
-0.0384754
-0.0392891
-0.0394879
-0.0394875
-0.0392879
-0.0384736
-0.0365873
-0.0336836
-0.0306506
-0.0289573
-0.0299097
-0.0339183
-0.0403368
-0.0479826
-0.0558687
-0.0635307
-0.0708046
-0.0774166
-0.082784
-0.0861326
-0.0867264
-0.084001
-0.0776549
-0.0677987
-0.0551173
-0.040938
-0.0270939
-0.0154783
-0.00741653
-0.00321831
-0.00217186
-0.00295357
-0.00412072
-0.00427955
-0.00197317
0.004197
0.0150585
0.0304381
0.049192
0.0695007