/*--------------------------------*- C++ -*----------------------------------*\
  =========                 |
  \\      /  F ield         | OpenFOAM: The Open Source CFD Toolbox
   \\    /   O peration     | Website:  https://openfoam.org
    \\  /    A nd           | Version:  10
     \\/     M anipulation  |
\*---------------------------------------------------------------------------*/
FoamFile
{
    format      ascii;
    class       volScalarField;
    location    "60";
    object      h;
}
// * * * * * * * * * * * * * * * * * * * * * * * * * * * * * * * * * * * * * //

dimensions      [0 1 0 0 0 0 0];

internalField   nonuniform List<scalar> 
10000
(
-0.0026661
-0.00793905
-0.0126109
-0.0157802
-0.0171226
-0.0171053
-0.0160941
-0.0139232
-0.0106802
-0.00707992
-0.00378513
-0.000871137
0.00168185
0.00354444
0.00441479
0.00434586
0.00357195
0.0023621
0.00116414
0.000381704
3.16038e-05
-0.00019693
-0.000538129
-0.000891696
-0.000944257
-0.000465271
0.000337243
0.000884942
0.000811695
0.000396718
0.000283744
0.000858858
0.00179597
0.00237911
0.00216541
0.00132562
0.000587529
0.000671109
0.00165196
0.00297918
0.00390307
0.0038861
0.00291251
0.0014012
-0.000131983
-0.00134753
-0.00215391
-0.00262235
-0.00287292
-0.00299218
-0.00299212
-0.00287276
-0.00262217
-0.0021538
-0.00134754
-0.000132106
0.00140104
0.00291242
0.00388615
0.00390327
0.00297946
0.00165221
0.000671208
0.000587442
0.0013254
0.00216515
0.00237894
0.00179597
0.000859026
0.000284009
0.000396963
0.000811817
0.000884916
0.000337138
-0.000465345
-0.000944251
-0.000891705
-0.000538357
-0.000197538
3.06329e-05
0.000380611
0.0011633
0.00236188
0.00357252
0.00434718
0.00441663
0.00354648
0.00168371
-0.000869711
-0.00378426
-0.00707971
-0.0106807
-0.0139245
-0.016096
-0.0171078
-0.0171255
-0.0157832
-0.0126134
-0.00794071
-0.00266667
-0.00793905
-0.0236364
-0.0375677
-0.0470998
-0.0512572
-0.051351
-0.0484084
-0.0419537
-0.0322746
-0.0215031
-0.0116302
-0.00292944
0.00464817
0.0101924
0.0128867
0.0129241
0.0109863
0.00781363
0.00462384
0.00250643
0.00147763
0.000670683
-0.000509455
-0.00168577
-0.00191002
-0.000560175
0.00165961
0.00299215
0.00238284
0.000747373
0.000100965
0.00165715
0.00445537
0.00630304
0.00577215
0.00328156
0.000962065
0.000992315
0.00368986
0.00750005
0.0102195
0.0102186
0.00738349
0.0029042
-0.00170093
-0.00539461
-0.00786091
-0.00928827
-0.0100365
-0.0103811
-0.0103809
-0.0100362
-0.00928791
-0.00786068
-0.00539461
-0.00170114
0.00290392
0.00738334
0.0102187
0.0102199
0.00750055
0.00369024
0.000992409
0.000961817
0.00328106
0.00577158
0.00630262
0.00445528
0.00165744
0.00010156
0.000748063
0.00238334
0.00299228
0.00165941
-0.000560492
-0.00191028
-0.00168607
-0.000510195
0.00066916
0.00147536
0.00250397
0.00462208
0.00781344
0.0109881
0.0129278
0.0128918
0.0101981
0.00465338
-0.00292542
-0.0116278
-0.0215026
-0.0322763
-0.0419577
-0.0484144
-0.0513585
-0.0512658
-0.0471084
-0.0375751
-0.0236412
-0.00794071
-0.0126109
-0.0375677
-0.0598339
-0.0753185
-0.0824404
-0.0831121
-0.0788119
-0.0687665
-0.0534599
-0.0363043
-0.0205236
-0.00664587
0.00541339
0.0143689
0.0190826
0.0199068
0.0178477
0.0139076
0.00974403
0.00684039
0.00516045
0.00348022
0.00112406
-0.00107897
-0.00154338
0.000571481
0.00389741
0.00549142
0.00373929
0.000345981
-0.00118281
0.00123959
0.00602392
0.00942097
0.00884594
0.00480876
0.000742111
0.000306913
0.00424507
0.0102088
0.0146486
0.0148226
0.0103813
0.00313105
-0.00449675
-0.0107507
-0.0150076
-0.0175063
-0.0188156
-0.0194004
-0.0194003
-0.0188154
-0.0175061
-0.0150074
-0.0107506
-0.00449677
0.00313104
0.0103814
0.0148227
0.0146488
0.0102089
0.00424502
0.00030669
0.000741786
0.00480839
0.00884554
0.00942057
0.00602362
0.00123959
-0.00118231
0.00034693
0.00374033
0.00549206
0.00389733
0.000570766
-0.00154441
-0.00108015
0.0011226
0.00347827
0.00515807
0.00683813
0.00974279
0.0139083
0.0178508
0.0199122
0.0190898
0.014377
0.00542099
-0.00663989
-0.02052
-0.0363037
-0.0534629
-0.0687732
-0.0788216
-0.0831241
-0.0824537
-0.0753318
-0.0598451
-0.0375751
-0.0126134
-0.0157802
-0.0470998
-0.0753185
-0.0953998
-0.105306
-0.107242
-0.102832
-0.090982
-0.072257
-0.0509744
-0.0312613
-0.0138403
0.00146918
0.0132604
0.0202301
0.0227652
0.0219199
0.0186624
0.0147135
0.0116537
0.00939517
0.00662255
0.00287251
-0.00044664
-0.00115313
0.001652
0.0058752
0.00753408
0.00465078
-0.000236183
-0.00224029
0.00143419
0.00852496
0.0137527
0.0133714
0.00795787
0.00216084
0.00106524
0.00593611
0.0138078
0.0199151
0.0204475
0.0147313
0.00503333
-0.00544231
-0.0142786
-0.020501
-0.0243225
-0.0264256
-0.0273763
-0.0273762
-0.0264255
-0.0243224
-0.0205009
-0.0142784
-0.00544202
0.00503374
0.0147317
0.0204478
0.0199151
0.0138074
0.00593546
0.00106464
0.00216056
0.00795798
0.0133717
0.0137527
0.00852461
0.00143375
-0.00224026
-0.000235342
0.00465215
0.00753522
0.00587533
0.00165086
-0.00115519
-0.000449047
0.00287012
0.00662037
0.00939336
0.0116526
0.0147137
0.0186644
0.0219239
0.0227713
0.020238
0.0132694
0.00147783
-0.0138333
-0.0312571
-0.0509739
-0.0722611
-0.0909908
-0.102845
-0.107257
-0.105323
-0.0954158
-0.0753318
-0.0471084
-0.0157832
-0.0171226
-0.0512572
-0.0824404
-0.105306
-0.117583
-0.121459
-0.118411
-0.10703
-0.0877975
-0.0653838
-0.0442934
-0.0252874
-0.0080289
0.00614429
0.015793
0.0210596
0.0226973
0.0214107
0.0187472
0.0162101
0.0137003
0.00999772
0.00495923
0.000508261
-0.000686439
0.00229355
0.00683059
0.00830125
0.0046258
-0.000963486
-0.00262601
0.00274126
0.0121561
0.0190488
0.0187832
0.0121476
0.00489641
0.00330376
0.00906235
0.0186603
0.0262696
0.0271688
0.0203928
0.00857009
-0.00448811
-0.0158202
-0.0241252
-0.0295417
-0.0327402
-0.0342384
-0.0342383
-0.03274
-0.0295415
-0.024125
-0.0158199
-0.00448767
0.00857071
0.0203935
0.0271693
0.0262696
0.0186596
0.00906135
0.00330287
0.00489614
0.0121482
0.0187841
0.0190495
0.0121561
0.00274063
-0.00262653
-0.00096323
0.00462682
0.00830229
0.00683066
0.00229211
-0.000689105
0.000505122
0.00495634
0.0099956
0.0136993
0.0162104
0.0187491
0.0214141
0.0227021
0.0210658
0.0158005
0.00615267
-0.0080207
-0.0252807
-0.0442894
-0.0653837
-0.0878024
-0.10704
-0.118424
-0.121475
-0.1176
-0.105323
-0.0824537
-0.0512658
-0.0171255
-0.0171053
-0.051351
-0.0831121
-0.107242
-0.121459
-0.127689
-0.127066
-0.117974
-0.100694
-0.0796677
-0.0592106
-0.0399853
-0.0215377
-0.00508497
0.00771865
0.0164681
0.0213744
0.0228664
0.0223151
0.0210947
0.0190867
0.0151618
0.00935408
0.00384729
0.00164317
0.00376646
0.00747909
0.00806322
0.0036064
-0.00222469
-0.00319775
0.00367502
0.0147688
0.0226591
0.0222351
0.0146375
0.00648229
0.00481397
0.0115196
0.0225767
0.0312981
0.0322931
0.0244204
0.0106251
-0.00481145
-0.0184993
-0.0288547
-0.0359339
-0.0403322
-0.0424399
-0.0424397
-0.0403318
-0.0359334
-0.0288542
-0.0184988
-0.00481103
0.0106256
0.024421
0.0322935
0.0312981
0.0225761
0.0115185
0.00481288
0.00648186
0.0146381
0.0222364
0.0226604
0.0147693
0.00367451
-0.00319872
-0.00222539
0.00360628
0.00806327
0.00747853
0.00376484
0.00164071
0.00384464
0.00935189
0.0151606
0.0190868
0.0210964
0.0223185
0.0228712
0.0213801
0.0164744
0.00772532
-0.00507814
-0.0215313
-0.0399803
-0.0592081
-0.0796688
-0.100699
-0.117985
-0.12708
-0.127705
-0.121475
-0.107258
-0.0831241
-0.0513585
-0.0171078
-0.0160941
-0.0484084
-0.0788119
-0.102832
-0.118411
-0.127066
-0.129506
-0.124063
-0.110721
-0.0931385
-0.0749003
-0.0564956
-0.0374982
-0.0190647
-0.00314847
0.00912071
0.0173734
0.0219431
0.0241467
0.0251774
0.0247762
0.0217622
0.0161149
0.0100068
0.00662712
0.0072027
0.00923013
0.00833177
0.00292866
-0.00314599
-0.00370882
0.00391186
0.0157253
0.0239678
0.0233953
0.0154528
0.00720499
0.00597627
0.0136395
0.0257712
0.0350842
0.0357618
0.0265841
0.0107693
-0.00700888
-0.0229642
-0.0352258
-0.0437803
-0.0491897
-0.0517795
-0.0517792
-0.0491889
-0.0437792
-0.0352248
-0.0229635
-0.00700851
0.0107695
0.0265842
0.0357619
0.035084
0.0257706
0.0136385
0.00597519
0.00720447
0.0154533
0.0233967
0.0239694
0.0157262
0.00391154
-0.0037101
-0.00314762
0.00292713
0.00833034
0.00922855
0.0072009
0.00662545
0.0100057
0.0161147
0.0217629
0.0247779
0.0251805
0.0241512
0.0219489
0.0173798
0.00912701
-0.0031428
-0.0190599
-0.0374947
-0.0564937
-0.0749005
-0.0931414
-0.110728
-0.124073
-0.129518
-0.12708
-0.118424
-0.102845
-0.0788216
-0.0484144
-0.0160961
-0.0139232
-0.0419537
-0.0687665
-0.090982
-0.10703
-0.117974
-0.124063
-0.123665
-0.116315
-0.10435
-0.0901558
-0.0740055
-0.0556691
-0.0362994
-0.0181126
-0.00293931
0.00837006
0.0162116
0.0218489
0.0260987
0.0283569
0.0273058
0.0228188
0.0169675
0.0130153
0.0123506
0.0127949
0.0104722
0.00418063
-0.00225106
-0.0028851
0.00468237
0.016468
0.0248104
0.0245062
0.0170883
0.00960914
0.0092587
0.0178033
0.0306164
0.040087
0.0401614
0.0295689
0.0117126
-0.00840788
-0.0266031
-0.040675
-0.0505258
-0.0567351
-0.0596628
-0.0596623
-0.0567338
-0.0505241
-0.0406735
-0.0266022
-0.00840752
0.0117125
0.0295686
0.0401612
0.0400868
0.0306159
0.0178025
0.0092579
0.00960881
0.0170889
0.0245076
0.0248119
0.0164687
0.00468188
-0.00288673
-0.00225331
0.00417824
0.0104698
0.0127927
0.0123487
0.0130145
0.0169682
0.0228208
0.0273088
0.0283604
0.0261028
0.0218538
0.0162174
0.00837626
-0.00293362
-0.0181083
-0.036297
-0.0556689
-0.0740073
-0.0901593
-0.104356
-0.116322
-0.123674
-0.124073
-0.117985
-0.10704
-0.0909908
-0.0687732
-0.0419577
-0.0139245
-0.0106802
-0.0322746
-0.0534599
-0.072257
-0.0877975
-0.100694
-0.110721
-0.116315
-0.116439
-0.111768
-0.103222
-0.0908894
-0.074849
-0.0561878
-0.0371406
-0.0200026
-0.00596892
0.00539221
0.0150608
0.0231609
0.0285827
0.0299801
0.0273204
0.022645
0.0191376
0.0181351
0.0176629
0.0143549
0.00741362
0.000596611
-0.000475782
0.00643194
0.0176448
0.0259284
0.0262268
0.0199548
0.0137967
0.0145251
0.0237857
0.0369646
0.0463767
0.0458661
0.0340759
0.0144316
-0.00787542
-0.0283062
-0.0443153
-0.0556344
-0.0627861
-0.0661363
-0.0661357
-0.0627846
-0.0556325
-0.0443136
-0.0283052
-0.00787511
0.0144314
0.0340756
0.0458659
0.0463767
0.0369645
0.0237854
0.0145247
0.0137966
0.0199553
0.0262278
0.0259293
0.0176448
0.00643073
-0.000477925
0.000594166
0.00741136
0.0143529
0.0176611
0.0181339
0.0191376
0.0226469
0.0273242
0.0299849
0.0285878
0.0231658
0.0150656
0.00539712
-0.00596406
-0.0199985
-0.0371382
-0.0561878
-0.0748518
-0.0908945
-0.103229
-0.111775
-0.116446
-0.116322
-0.110728
-0.100699
-0.0878024
-0.0722611
-0.053463
-0.0322763
-0.0106807
-0.00707992
-0.0215031
-0.0363043
-0.0509744
-0.0653838
-0.0796677
-0.0931385
-0.10435
-0.111768
-0.114451
-0.111944
-0.104286
-0.0918913
-0.0755759
-0.0571805
-0.039104
-0.0227865
-0.0079602
0.00574909
0.0175528
0.0258792
0.0296371
0.0291532
0.0264355
0.0242798
0.0236611
0.0227104
0.0186749
0.011281
0.00417233
0.00249552
0.00825839
0.0182361
0.0259009
0.0265484
0.0214335
0.0166769
0.0184461
0.0282504
0.0416472
0.0510677
0.0503406
0.0379326
0.0170499
-0.00713506
-0.0298479
-0.0481815
-0.061524
-0.0701353
-0.0742301
-0.0742296
-0.0701339
-0.0615223
-0.04818
-0.029847
-0.00713481
0.0170498
0.0379325
0.0503409
0.0510681
0.0416475
0.0282503
0.0184457
0.0166765
0.0214335
0.0265486
0.0259009
0.0182351
0.00825626
0.0024928
0.00416992
0.0112795
0.0186743
0.0227102
0.0236611
0.0242807
0.0264379
0.0291575
0.0296429
0.0258855
0.0175585
0.00575386
-0.00795638
-0.0227836
-0.0391022
-0.0571805
-0.0755784
-0.0918965
-0.104293
-0.111952
-0.114459
-0.111775
-0.104356
-0.0931414
-0.0796688
-0.0653837
-0.0509739
-0.0363037
-0.0215026
-0.00707971
-0.00378513
-0.0116302
-0.0205236
-0.0312613
-0.0442934
-0.0592106
-0.0749003
-0.0901558
-0.103222
-0.111944
-0.114855
-0.11209
-0.10429
-0.0917168
-0.0754132
-0.0575658
-0.039834
-0.0223424
-0.0054872
0.00912253
0.0197386
0.025804
0.0280629
0.0282293
0.0282655
0.0285474
0.0274193
0.0230076
0.0156912
0.00882972
0.00675615
0.0110465
0.0190066
0.0251431
0.0254289
0.0210441
0.017444
0.0200556
0.0302307
0.043818
0.0535001
0.0531107
0.0407814
0.0192214
-0.00661304
-0.0317834
-0.0529562
-0.0689562
-0.0795704
-0.0847367
-0.0847364
-0.0795695
-0.068955
-0.0529551
-0.0317827
-0.0066127
0.0192216
0.0407819
0.0531116
0.0535011
0.0438187
0.0302307
0.0200548
0.0174429
0.021043
0.0254281
0.0251421
0.0190049
0.0110439
0.00675327
0.00882755
0.0156906
0.0230085
0.0274211
0.0285494
0.0282676
0.0282321
0.0280672
0.0258097
0.0197451
0.00912869
-0.00548243
-0.0223396
-0.039833
-0.0575667
-0.0754161
-0.0917217
-0.104297
-0.112098
-0.114864
-0.111952
-0.103229
-0.0901593
-0.0749005
-0.0592081
-0.0442894
-0.0312571
-0.0205201
-0.0116278
-0.00378427
-0.000871137
-0.00292944
-0.00664587
-0.0138403
-0.0252874
-0.0399853
-0.0564956
-0.0740055
-0.0908894
-0.104286
-0.11209
-0.114509
-0.112151
-0.104485
-0.091559
-0.0752122
-0.0573535
-0.0386188
-0.0200597
-0.00371982
0.00884171
0.0176699
0.0236658
0.0278075
0.0308494
0.0325636
0.0318166
0.0278934
0.0217872
0.0162183
0.0142873
0.016977
0.0222865
0.0261334
0.025481
0.0214709
0.0187561
0.0219057
0.032134
0.0457252
0.0557494
0.0560523
0.0442704
0.0223791
-0.00500353
-0.0327796
-0.0571064
-0.0760796
-0.0889182
-0.0952831
-0.0952828
-0.0889174
-0.0760785
-0.0571054
-0.0327787
-0.00500288
0.0223797
0.0442713
0.0560534
0.0557505
0.0457258
0.0321337
0.0219042
0.018754
0.0214688
0.0254793
0.026132
0.0222851
0.0169751
0.0142852
0.0162168
0.0217873
0.0278953
0.03182
0.0325675
0.0308531
0.0278111
0.0236699
0.0176749
0.00884738
-0.00371432
-0.0200556
-0.038617
-0.0573545
-0.0752158
-0.0915647
-0.104493
-0.112159
-0.114517
-0.112098
-0.104293
-0.0908945
-0.0740073
-0.0564937
-0.0399803
-0.0252807
-0.0138333
-0.0066399
-0.00292543
-0.000869716
0.00168185
0.00464817
0.00541339
0.00146918
-0.0080289
-0.0215377
-0.0374982
-0.0556691
-0.074849
-0.0918913
-0.10429
-0.112151
-0.115765
-0.113757
-0.105253
-0.0917506
-0.0753493
-0.0570948
-0.038366
-0.0211923
-0.00674154
0.00540341
0.0158616
0.0245355
0.0309049
0.034391
0.034717
0.032407
0.0287955
0.0255521
0.0242805
0.0254268
0.0279433
0.0294436
0.0279925
0.0245441
0.022711
0.0260873
0.0358065
0.048776
0.0586606
0.0594367
0.0482299
0.0261829
-0.0024914
-0.0325887
-0.0598001
-0.0814855
-0.0963282
-0.103781
-0.10378
-0.0963268
-0.0814837
-0.0597983
-0.0325872
-0.00249033
0.0261837
0.0482306
0.0594375
0.0586612
0.048776
0.0358056
0.0260852
0.0227083
0.0245414
0.0279904
0.0294425
0.0279427
0.0254263
0.0242798
0.0255518
0.0287962
0.0324094
0.034721
0.0343961
0.0309101
0.0245401
0.0158657
0.0054073
-0.00673766
-0.0211888
-0.0383637
-0.0570946
-0.0753519
-0.0917561
-0.105261
-0.113766
-0.115774
-0.112159
-0.104297
-0.0918965
-0.0748518
-0.0556689
-0.0374947
-0.0215313
-0.00802071
0.00147783
0.00542098
0.00465337
0.0016837
0.00354444
0.0101924
0.0143689
0.0132604
0.00614429
-0.00508497
-0.0190647
-0.0362994
-0.0561878
-0.0755759
-0.0917168
-0.104485
-0.113757
-0.117518
-0.11423
-0.105002
-0.0918397
-0.0758767
-0.0584493
-0.041288
-0.0252176
-0.00983636
0.00483483
0.0175804
0.0268554
0.0320678
0.0339569
0.0341161
0.033846
0.0335025
0.0332012
0.0330956
0.0333171
0.0332418
0.0318991
0.0297574
0.0291
0.0324326
0.0408668
0.0521364
0.0607923
0.0612113
0.0501777
0.0280526
-0.00140085
-0.0330178
-0.0622171
-0.0857824
-0.101996
-0.110208
-0.110207
-0.101994
-0.0857795
-0.0622141
-0.0330153
-0.00139931
0.0280533
0.0501778
0.0612112
0.0607919
0.0521355
0.0408651
0.03243
0.029097
0.0297546
0.0318972
0.0332412
0.0333177
0.0330967
0.0332024
0.0335037
0.0338475
0.0341187
0.0339609
0.032073
0.026861
0.0175855
0.00483889
-0.0098335
-0.0252158
-0.0412872
-0.0584497
-0.0758787
-0.0918438
-0.105008
-0.114239
-0.117527
-0.113766
-0.104493
-0.0917217
-0.0755784
-0.0561878
-0.036297
-0.0190599
-0.00507816
0.00615266
0.0132694
0.014377
0.0101981
0.00354648
0.00441479
0.0128867
0.0190826
0.0202301
0.015793
0.00771865
-0.00314847
-0.0181126
-0.0371406
-0.0571805
-0.0754132
-0.091559
-0.105253
-0.11423
-0.116548
-0.11275
-0.104309
-0.0921043
-0.0772344
-0.0610855
-0.0442856
-0.0267009
-0.00905474
0.00657137
0.0179743
0.0247442
0.0285298
0.0316676
0.0351252
0.0379215
0.0388976
0.0381719
0.0371103
0.0366871
0.0366264
0.0366213
0.0374198
0.0404067
0.0467538
0.0552041
0.0614607
0.0605567
0.0491242
0.0268409
-0.00298891
-0.0353394
-0.0655159
-0.0899229
-0.106657
-0.11515
-0.115149
-0.106654
-0.0899193
-0.0655121
-0.0353362
-0.00298695
0.0268415
0.0491237
0.0605554
0.061459
0.0552021
0.0467515
0.040404
0.0374171
0.036619
0.0366252
0.0366872
0.0371117
0.0381743
0.0389002
0.0379241
0.0351277
0.0316705
0.0285335
0.0247489
0.0179794
0.00657606
-0.00905119
-0.026699
-0.0442856
-0.0610873
-0.0772377
-0.0921087
-0.104314
-0.112756
-0.116556
-0.114239
-0.105261
-0.0915647
-0.0754161
-0.0571805
-0.0371382
-0.0181083
-0.00314281
0.00772532
0.0158005
0.020238
0.0190898
0.0128918
0.00441664
0.00434586
0.0129241
0.0199068
0.0227652
0.0210596
0.0164681
0.00912071
-0.00293931
-0.0200026
-0.039104
-0.0575658
-0.0752122
-0.0917506
-0.105002
-0.11275
-0.114743
-0.111591
-0.103816
-0.0923552
-0.0783318
-0.0621954
-0.0440225
-0.0250204
-0.00777974
0.00512507
0.0134693
0.0195466
0.0260978
0.0335821
0.0397844
0.0425014
0.0419647
0.0406806
0.0409592
0.0429725
0.0454893
0.0477032
0.0499912
0.053713
0.0587377
0.0620282
0.0593134
0.047084
0.0243706
-0.00593893
-0.0388994
-0.0696759
-0.0943799
-0.111093
-0.119526
-0.119525
-0.111091
-0.0943766
-0.0696723
-0.0388963
-0.00593701
0.024371
0.047083
0.0593114
0.0620258
0.0587352
0.0537107
0.049989
0.0477013
0.0454879
0.042972
0.04096
0.0406827
0.0419679
0.0425051
0.0397881
0.0335856
0.0261012
0.0195502
0.0134732
0.00512891
-0.0077764
-0.0250181
-0.0440218
-0.0621968
-0.0783354
-0.0923607
-0.103823
-0.111598
-0.11475
-0.112756
-0.105008
-0.0917561
-0.0752158
-0.0575667
-0.0391022
-0.0199985
-0.00293362
0.009127
0.0164744
0.0210658
0.0227713
0.0199122
0.0129278
0.00434718
0.00357195
0.0109863
0.0178477
0.0219199
0.0226973
0.0213744
0.0173734
0.00837006
-0.00596892
-0.0227865
-0.039834
-0.0573535
-0.0753493
-0.0918397
-0.104309
-0.111591
-0.113419
-0.110145
-0.102741
-0.0920657
-0.0781795
-0.0610937
-0.0422315
-0.0244471
-0.0105315
-0.000582397
0.0081013
0.0184059
0.0301775
0.0400567
0.0449408
0.0452169
0.0443941
0.0459019
0.050244
0.0552964
0.0588421
0.0604382
0.0617145
0.0636347
0.0643199
0.0600278
0.0469875
0.0235718
-0.00770998
-0.0418854
-0.0738391
-0.0993167
-0.11634
-0.124866
-0.124865
-0.116339
-0.0993144
-0.0738367
-0.0418834
-0.00770888
0.0235718
0.0469864
0.0600259
0.0643178
0.0636328
0.0617129
0.060437
0.0588412
0.055296
0.0502442
0.0459032
0.0443966
0.0452204
0.044945
0.0400609
0.0301814
0.0184096
0.00810475
-0.000579258
-0.0105289
-0.0244456
-0.0422311
-0.0610946
-0.0781821
-0.0920703
-0.102748
-0.110153
-0.113427
-0.111598
-0.104314
-0.0918438
-0.0753519
-0.0573545
-0.039833
-0.0227836
-0.00596406
0.00837625
0.0173798
0.0213801
0.0227021
0.0219239
0.0178508
0.0109881
0.00357253
0.0023621
0.00781363
0.0139076
0.0186624
0.0214107
0.0228664
0.0219431
0.0162116
0.00539221
-0.0079602
-0.0223424
-0.0386188
-0.0570948
-0.0758767
-0.0921043
-0.103816
-0.110145
-0.111513
-0.10895
-0.10282
-0.092488
-0.0777055
-0.060055
-0.0426077
-0.0282586
-0.0169402
-0.00565737
0.00842426
0.0244338
0.0379239
0.0450212
0.0463211
0.0462532
0.0492267
0.0560446
0.06381
0.0690857
0.0707453
0.0706229
0.0705668
0.0696201
0.0643715
0.050713
0.0263926
-0.00644764
-0.0427678
-0.0770633
-0.104563
-0.122978
-0.132214
-0.132214
-0.122977
-0.104562
-0.0770624
-0.0427673
-0.00644773
0.026392
0.050712
0.0643704
0.0696191
0.0705661
0.0706226
0.0707453
0.069086
0.0638105
0.0560455
0.0492284
0.0462559
0.0463248
0.0450254
0.0379281
0.0244375
0.00842746
-0.00565459
-0.016938
-0.0282574
-0.0426079
-0.0600567
-0.0777084
-0.0924919
-0.102825
-0.108956
-0.111521
-0.110153
-0.103823
-0.0921087
-0.0758787
-0.0570946
-0.038617
-0.0223396
-0.00795639
0.00539711
0.0162174
0.0219489
0.0228712
0.0214141
0.0186644
0.0139083
0.00781344
0.00236189
0.00116414
0.00462384
0.00974403
0.0147135
0.0187472
0.0223151
0.0241467
0.0218489
0.0150608
0.00574909
-0.0054872
-0.0200597
-0.038366
-0.0584493
-0.0772344
-0.0923552
-0.102741
-0.10895
-0.111801
-0.110826
-0.104542
-0.092541
-0.076733
-0.0604367
-0.0464655
-0.0344351
-0.0211136
-0.00390693
0.015539
0.0318544
0.0406557
0.0428788
0.0438037
0.0486448
0.0584104
0.0695056
0.07741
0.0803545
0.0802058
0.0794249
0.077759
0.072019
0.0577829
0.0322782
-0.00268179
-0.0419554
-0.079563
-0.110104
-0.130778
-0.141212
-0.141212
-0.130778
-0.110104
-0.0795632
-0.0419559
-0.00268251
0.0322773
0.0577821
0.0720185
0.0777589
0.0794253
0.0802067
0.0803558
0.0774114
0.0695069
0.0584119
0.0486467
0.0438065
0.0428824
0.0406598
0.0318581
0.015542
-0.00390489
-0.0211121
-0.0344342
-0.0464656
-0.0604384
-0.0767363
-0.0925456
-0.104547
-0.110831
-0.111807
-0.108956
-0.102748
-0.0923607
-0.0772377
-0.0584497
-0.0383637
-0.0200556
-0.00548243
0.00575385
0.0150656
0.0218538
0.0241512
0.0223185
0.0187491
0.0147137
0.0097428
0.00462209
0.00116331
0.000381704
0.00250643
0.00684039
0.0116537
0.0162101
0.0210947
0.0251774
0.0260987
0.0231609
0.0175528
0.00912253
-0.00371982
-0.0211923
-0.041288
-0.0610855
-0.0783318
-0.0920657
-0.10282
-0.110826
-0.114612
-0.112049
-0.102898
-0.0895554
-0.0754579
-0.0630108
-0.0513429
-0.037106
-0.0181501
0.0031547
0.0208865
0.0305909
0.0337146
0.0362285
0.0438179
0.0574285
0.0727124
0.0841236
0.0892717
0.089953
0.0890935
0.0870477
0.080829
0.0657724
0.0387359
0.00131741
-0.0411361
-0.0820868
-0.115536
-0.138271
-0.149748
-0.149749
-0.138272
-0.115536
-0.0820873
-0.0411366
0.00131705
0.0387355
0.065772
0.0808287
0.0870479
0.0890944
0.0899547
0.0892739
0.084126
0.0727147
0.0574305
0.04382
0.0362311
0.0337179
0.0305945
0.0208896
0.00315664
-0.0181495
-0.0371063
-0.0513438
-0.0630122
-0.0754605
-0.0895595
-0.102903
-0.112055
-0.114619
-0.110831
-0.102825
-0.0920703
-0.0783354
-0.0610873
-0.0412872
-0.0211888
-0.00371433
0.00912869
0.0175585
0.0231658
0.0261028
0.0251805
0.0210964
0.0162104
0.0116526
0.00683814
0.00250398
0.000380614
3.16038e-05
0.00147763
0.00516045
0.00939517
0.0137003
0.0190867
0.0247762
0.0283569
0.0285827
0.0258792
0.0197386
0.00884171
-0.00674154
-0.0252176
-0.0442856
-0.0621954
-0.0781795
-0.092488
-0.104542
-0.112049
-0.112686
-0.106699
-0.0968502
-0.0863105
-0.0767046
-0.0666263
-0.0528456
-0.0338379
-0.0125102
0.00518392
0.0151937
0.0195476
0.0245925
0.0360143
0.0543319
0.0743524
0.0895764
0.0970858
0.0986186
0.0975352
0.0948069
0.0877243
0.0715279
0.0429175
0.00341615
-0.0413805
-0.0844559
-0.119472
-0.143129
-0.154982
-0.154982
-0.143129
-0.119472
-0.0844558
-0.0413801
0.00341674
0.0429181
0.0715283
0.0877245
0.0948073
0.0975362
0.0986203
0.0970883
0.0895794
0.0743553
0.0543344
0.0360165
0.0245948
0.0195502
0.0151965
0.00518622
-0.0125091
-0.0338384
-0.0528473
-0.0666287
-0.0767074
-0.0863139
-0.0968545
-0.106704
-0.112692
-0.112055
-0.104547
-0.0924919
-0.0781821
-0.0621968
-0.0442856
-0.0252158
-0.00673767
0.00884738
0.0197451
0.0258855
0.0285877
0.0283604
0.0247779
0.0190868
0.0136993
0.00939337
0.00515808
0.00147536
3.06324e-05
-0.00019693
0.000670683
0.00348022
0.00662255
0.00999772
0.0151618
0.0217622
0.0273058
0.0299801
0.0296371
0.025804
0.0176699
0.00540341
-0.00983636
-0.0267009
-0.0440225
-0.0610937
-0.0777055
-0.092541
-0.102898
-0.106699
-0.104685
-0.0995536
-0.0937138
-0.0877976
-0.080048
-0.0676864
-0.049923
-0.0299178
-0.0131448
-0.00293163
0.00319755
0.0115244
0.0272849
0.0503568
0.0748017
0.0933911
0.102835
0.104813
0.103043
0.0991218
0.0907691
0.0734004
0.0438319
0.0035745
-0.0417095
-0.0848583
-0.119595
-0.142827
-0.154342
-0.154341
-0.142826
-0.119594
-0.0848571
-0.041708
0.00357617
0.0438335
0.0734018
0.0907701
0.0991226
0.103044
0.104814
0.102837
0.093394
0.0748047
0.0503593
0.0272868
0.0115259
0.00319907
-0.0029301
-0.0131436
-0.0299177
-0.0499243
-0.0676889
-0.0800514
-0.0878014
-0.0937178
-0.0995579
-0.10469
-0.106704
-0.102903
-0.0925456
-0.0777083
-0.0610946
-0.0440218
-0.026699
-0.0098335
0.00540729
0.0176749
0.0258097
0.0296428
0.0299849
0.0273088
0.0217629
0.0151606
0.0099956
0.00662037
0.00347828
0.000669162
-0.000197541
-0.000538129
-0.000509455
0.00112406
0.00287251
0.00495923
0.00935408
0.0161149
0.0228188
0.0273204
0.0291532
0.0280629
0.0236658
0.0158616
0.00483483
-0.00905474
-0.0250204
-0.0422315
-0.060055
-0.076733
-0.0895554
-0.0968502
-0.0995536
-0.0997553
-0.0987626
-0.0963068
-0.0906733
-0.0798717
-0.0638546
-0.0457454
-0.030195
-0.0197329
-0.0117166
-0.000320049
0.0190212
0.0456401
0.0732029
0.0941092
0.104856
0.106987
0.104399
0.0992451
0.0897814
0.0718221
0.0424801
0.0031969
-0.0405636
-0.0818269
-0.114692
-0.136432
-0.147076
-0.147076
-0.136431
-0.11469
-0.0818249
-0.0405611
0.0031996
0.0424828
0.0718246
0.0897835
0.0992467
0.1044
0.106988
0.104858
0.0941115
0.0732053
0.0456421
0.0190225
-0.000319443
-0.0117164
-0.0197328
-0.0301951
-0.0457461
-0.0638563
-0.0798745
-0.090677
-0.096311
-0.0987669
-0.0997597
-0.0995579
-0.0968545
-0.0895595
-0.0767363
-0.0600567
-0.0422311
-0.0250181
-0.00905119
0.00483888
0.0158657
0.0236699
0.0280672
0.0291575
0.0273241
0.0228208
0.0161147
0.00935189
0.00495635
0.00287013
0.00112261
-0.000510195
-0.000538362
-0.000891696
-0.00168577
-0.00107897
-0.00044664
0.000508261
0.00384729
0.0100068
0.0169675
0.022645
0.0264355
0.0282293
0.0278075
0.0245355
0.0175804
0.00657137
-0.00777974
-0.0244471
-0.0426077
-0.0604367
-0.0754579
-0.0863105
-0.0937138
-0.0987626
-0.101605
-0.101408
-0.0969478
-0.0872695
-0.073006
-0.0570203
-0.0429823
-0.0326824
-0.0235489
-0.0103971
0.0107037
0.0388536
0.0677614
0.0898148
0.101417
0.103863
0.101017
0.0954456
0.0858757
0.0685106
0.040724
0.00377889
-0.0371682
-0.0753989
-0.105466
-0.125059
-0.134479
-0.134478
-0.125058
-0.105464
-0.0753967
-0.0371653
0.00378236
0.0407276
0.068514
0.0858786
0.095448
0.101019
0.103865
0.101418
0.0898165
0.0677629
0.0388545
0.0107039
-0.0103977
-0.0235499
-0.0326836
-0.0429837
-0.0570219
-0.073008
-0.0872722
-0.0969511
-0.101412
-0.10161
-0.0987669
-0.0937178
-0.0863139
-0.0754605
-0.0604383
-0.0426079
-0.0244456
-0.0077764
0.00657606
0.0175855
0.02454
0.0278111
0.0282321
0.0264379
0.0226469
0.0169682
0.0100057
0.00384464
0.000505124
-0.000449043
-0.00108015
-0.00168607
-0.000891711
-0.000944257
-0.00191002
-0.00154338
-0.00115313
-0.000686439
0.00164317
0.00662712
0.0130153
0.0191376
0.0242798
0.0282655
0.0308494
0.0309049
0.0268554
0.0179743
0.00512507
-0.0105315
-0.0282586
-0.0464655
-0.0630108
-0.0767046
-0.0877976
-0.0963068
-0.101408
-0.102081
-0.0979037
-0.0890289
-0.0766434
-0.0631858
-0.0513045
-0.0421188
-0.0332292
-0.0200888
0.000770328
0.0285472
0.0573466
0.079797
0.0922426
0.0956016
0.0935123
0.0887633
0.0803748
0.0647973
0.0395578
0.00568268
-0.0319554
-0.0668208
-0.0938654
-0.111158
-0.119262
-0.119262
-0.111158
-0.0938644
-0.066819
-0.0319527
0.00568624
0.0395618
0.0648013
0.0803784
0.0887663
0.0935147
0.0956035
0.0922442
0.0797981
0.0573472
0.028547
0.000769327
-0.0200905
-0.0332312
-0.0421209
-0.0513065
-0.0631879
-0.0766456
-0.0890313
-0.0979066
-0.102084
-0.101412
-0.096311
-0.0878014
-0.0767074
-0.0630122
-0.0464656
-0.0282574
-0.0105289
0.0051289
0.0179794
0.026861
0.0309101
0.0308531
0.0282676
0.0242807
0.0191376
0.0130145
0.00662545
0.00164071
-0.000689103
-0.00115519
-0.00154441
-0.00191028
-0.000944256
-0.000465271
-0.000560175
0.000571481
0.001652
0.00229355
0.00376646
0.0072027
0.0123506
0.0181351
0.0236611
0.0285474
0.0325636
0.034391
0.0320678
0.0247442
0.0134693
-0.000582397
-0.0169402
-0.0344351
-0.0513429
-0.0666263
-0.080048
-0.0906733
-0.0969478
-0.0979037
-0.0939964
-0.0863784
-0.0765894
-0.0664624
-0.0575873
-0.0504485
-0.0428844
-0.030997
-0.0116752
0.0145959
0.0425493
0.0652107
0.078834
0.0837976
0.0833048
0.0801641
0.0735846
0.0602762
0.0379646
0.00746341
-0.0266625
-0.0581227
-0.0822831
-0.0975074
-0.104471
-0.104471
-0.0975072
-0.0822826
-0.0581216
-0.0266605
0.00746637
0.0379683
0.0602803
0.0735885
0.0801674
0.0833072
0.0837993
0.0788351
0.0652113
0.0425492
0.0145949
-0.011677
-0.0309993
-0.0428869
-0.050451
-0.0575896
-0.0664646
-0.0765916
-0.0863806
-0.0939988
-0.0979066
-0.0969511
-0.090677
-0.0800514
-0.0666287
-0.0513438
-0.0344342
-0.016938
-0.000579262
0.0134732
0.0247488
0.032073
0.0343961
0.0325675
0.0285494
0.0236611
0.0181339
0.0123487
0.0072009
0.00376484
0.00229211
0.00165086
0.000570771
-0.00056049
-0.000465348
0.000337243
0.00165961
0.00389741
0.0058752
0.00683059
0.00747909
0.00923013
0.0127949
0.0176629
0.0227104
0.0274193
0.0318166
0.034717
0.0339569
0.0285298
0.0195466
0.0081013
-0.00565737
-0.0211136
-0.037106
-0.0528456
-0.0676864
-0.0798717
-0.0872695
-0.0890289
-0.0863784
-0.0812316
-0.0751855
-0.0692161
-0.0637933
-0.0588579
-0.0526899
-0.0422181
-0.0247265
-0.000299011
0.0265748
0.049419
0.0643273
0.070982
0.0719966
0.0701125
0.0648304
0.0533327
0.0337055
0.0065951
-0.0238564
-0.0518004
-0.0731073
-0.0863985
-0.0923505
-0.0923506
-0.0863986
-0.0731072
-0.0517999
-0.0238553
0.0065972
0.0337085
0.0533362
0.064834
0.0701155
0.0719987
0.0709832
0.0643277
0.0494188
0.0265741
-0.000300381
-0.0247285
-0.0422206
-0.0526926
-0.0588604
-0.0637956
-0.0692181
-0.0751875
-0.0812337
-0.0863806
-0.0890313
-0.0872722
-0.0798745
-0.0676889
-0.0528473
-0.0371063
-0.0211121
-0.00565459
0.00810474
0.0195502
0.0285335
0.0339609
0.034721
0.03182
0.0274211
0.0227102
0.0176611
0.0127927
0.00922856
0.00747853
0.00683066
0.00587533
0.00389734
0.00165941
0.000337135
0.000884942
0.00299215
0.00549142
0.00753408
0.00830125
0.00806322
0.00833177
0.0104722
0.0143549
0.0186749
0.0230076
0.0278934
0.032407
0.0341161
0.0316676
0.0260978
0.0184059
0.00842426
-0.00390693
-0.0181501
-0.0338379
-0.049923
-0.0638546
-0.073006
-0.0766434
-0.0765894
-0.0751855
-0.0736948
-0.0719727
-0.0694041
-0.0656738
-0.0598903
-0.0500694
-0.0339477
-0.0111832
0.0145648
0.0373079
0.0528813
0.0602309
0.061442
0.0593406
0.0539913
0.0432738
0.0257104
0.0017643
-0.0249546
-0.0491753
-0.0673392
-0.0784135
-0.0831906
-0.0831907
-0.0784139
-0.0673396
-0.0491754
-0.0249541
0.00176562
0.0257124
0.0432763
0.0539938
0.0593427
0.0614432
0.0602313
0.052881
0.037307
0.0145635
-0.0111848
-0.0339496
-0.0500715
-0.0598926
-0.0656761
-0.0694062
-0.0719746
-0.0736966
-0.0751875
-0.0765916
-0.0766456
-0.073008
-0.0638563
-0.0499243
-0.0338384