/*--------------------------------*- C++ -*----------------------------------*\
  =========                 |
  \\      /  F ield         | OpenFOAM: The Open Source CFD Toolbox
   \\    /   O peration     | Website:  https://openfoam.org
    \\  /    A nd           | Version:  10
     \\/     M anipulation  |
\*---------------------------------------------------------------------------*/
FoamFile
{
    format      ascii;
    class       volScalarField;
    location    "37";
    object      h;
}
// * * * * * * * * * * * * * * * * * * * * * * * * * * * * * * * * * * * * * //

dimensions      [0 1 0 0 0 0 0];

internalField   nonuniform List<scalar> 
10000
(
0.000244722
0.000252565
0.000141019
0.000147236
-0.000227334
-0.000253171
-1.36943e-05
-7.98423e-05
-4.70419e-06
0.000150697
1.32081e-05
-0.000107248
2.43127e-06
4.32635e-05
1.23293e-05
-3.85953e-05
-0.000249233
-0.000581851
-0.00102429
-0.00160512
-0.00242215
-0.00331291
-0.0042534
-0.00493174
-0.00501254
-0.00453035
-0.00283645
-3.142e-06
0.00345752
0.00666826
0.00896202
0.00973476
0.00854386
0.00626921
0.00395098
0.00269062
0.00230392
0.00186851
-7.0446e-05
-0.00347816
-0.00655133
-0.00713447
-0.00483839
-0.00135118
0.0011563
0.00152343
0.000276395
-0.00123957
-0.00201167
-0.00213438
-0.00213435
-0.00201161
-0.00123953
0.000276389
0.0015234
0.00115625
-0.00135129
-0.00483855
-0.00713463
-0.00655138
-0.00347806
-7.0256e-05
0.00186865
0.00230391
0.00269053
0.00395094
0.00626935
0.00854415
0.00973511
0.0089623
0.00666844
0.0034576
-3.21666e-06
-0.00283662
-0.00453055
-0.00501268
-0.0049319
-0.00425354
-0.003313
-0.00242221
-0.00160512
-0.00102428
-0.000581799
-0.000249146
-3.85122e-05
1.24048e-05
4.3319e-05
2.41467e-06
-0.000107321
1.32183e-05
0.000150793
-4.69469e-06
-7.98681e-05
-1.3671e-05
-0.000253347
-0.000227518
0.000147337
0.00014113
0.000252779
0.000244928
0.000252565
-0.000113248
-0.000257728
0.000266965
-0.000107341
-8.52535e-05
0.000263882
-0.000122506
-0.000143544
0.000124878
-0.000112225
-0.000204354
2.24141e-05
-0.000187864
-0.000458951
-0.000533692
-0.000934251
-0.00170054
-0.00276389
-0.0042328
-0.00642154
-0.00899683
-0.0118483
-0.0140747
-0.0147652
-0.0136472
-0.0090108
-0.00104462
0.00884113
0.0182134
0.025045
0.0273245
0.0240835
0.01778
0.0114407
0.00795597
0.00695321
0.00580993
0.000383819
-0.00925326
-0.0179295
-0.0193765
-0.0125633
-0.00232289
0.005047
0.00631127
0.00289698
-0.0013831
-0.00368889
-0.00415273
-0.00415259
-0.00368859
-0.00138288
0.00289702
0.00631118
0.00504689
-0.00232306
-0.0125635
-0.0193767
-0.0179294
-0.00925287
0.000384386
0.0058103
0.00695313
0.00795562
0.0114404
0.0177801
0.024084
0.027325
0.0250453
0.0182135
0.00884094
-0.00104508
-0.0090114
-0.0136478
-0.0147655
-0.0140748
-0.0118483
-0.0089967
-0.00642138
-0.00423261
-0.0027638
-0.00170046
-0.000934159
-0.000533685
-0.000459002
-0.000187832
2.24775e-05
-0.000204427
-0.00011225
0.000124975
-0.000143627
-0.000122575
0.00026408
-8.53168e-05
-0.000107413
0.000267172
-0.000257936
-0.000113326
0.000252778
0.000141019
-0.000257728
-0.000359018
0.000213582
7.95342e-07
-7.54597e-06
0.000242323
-0.000133395
-0.000166093
8.94152e-05
-0.000153301
-0.000176044
4.1463e-05
-0.000364247
-0.00076985
-0.000956617
-0.00166733
-0.00297253
-0.00473088
-0.00720615
-0.0107641
-0.0149765
-0.0194724
-0.0229683
-0.0242186
-0.0220146
-0.0142852
-0.00144488
0.0144089
0.0297167
0.0409243
0.0443617
0.0393212
0.0295415
0.0197211
0.0136767
0.0112891
0.00869132
-0.000228245
-0.0154266
-0.028954
-0.0311332
-0.0205622
-0.0046722
0.00681216
0.0091398
0.00429515
-0.00212066
-0.0059479
-0.00701532
-0.00701506
-0.00594733
-0.00212026
0.00429513
0.00913949
0.00681183
-0.00467245
-0.0205624
-0.0311334
-0.0289539
-0.0154261
-0.000227491
0.00869179
0.0112889
0.0136762
0.0197207
0.0295416
0.0393218
0.0443625
0.0409248
0.0297168
0.0144086
-0.00144551
-0.014286
-0.0220153
-0.0242189
-0.0229684
-0.0194723
-0.0149763
-0.0107638
-0.00720591
-0.00473077
-0.00297246
-0.00166722
-0.000956581
-0.000769942
-0.000364244
4.16047e-05
-0.000176063
-0.000153341
8.95017e-05
-0.000166185
-0.000133482
0.000242493
-7.53904e-06
8.41441e-07
0.000213784
-0.000359295
-0.00025794
0.000141127
0.000147236
0.000266965
0.000213582
5.66398e-05
-0.000220342
-0.000268183
-0.00010742
-0.000112809
-4.25792e-05
0.000103264
-0.000106504
-0.000232388
-0.000159011
-0.000379946
-0.000672077
-0.00113601
-0.00230146
-0.00419313
-0.00674084
-0.0104563
-0.0155544
-0.0214596
-0.0273847
-0.0319678
-0.0336045
-0.029804
-0.0188221
-0.0013838
0.0199526
0.0409645
0.0562718
0.0607556
0.0545255
0.0422934
0.0297998
0.0209346
0.0161845
0.0110265
-0.00144276
-0.0212417
-0.0384345
-0.041236
-0.0280812
-0.00829411
0.00615909
0.00963649
0.00434554
-0.00331904
-0.00852002
-0.0104548
-0.0104544
-0.00851925
-0.00331855
0.00434537
0.00963587
0.00615849
-0.00829441
-0.0280813
-0.0412361
-0.0384344
-0.0212411
-0.0014419
0.0110271
0.0161845
0.0209342
0.0297996
0.0422936
0.0545262
0.0607566
0.0562727
0.0409647
0.0199523
-0.00138446
-0.0188229
-0.029805
-0.0336052
-0.0319681
-0.0273848
-0.0214597
-0.0155543
-0.0104561
-0.00674063
-0.00419299
-0.00230127
-0.00113579
-0.000671975
-0.000379917
-0.000158973
-0.000232444
-0.000106529
0.000103379
-4.25381e-05
-0.000112841
-0.000107445
-0.000268334
-0.000220524
5.66824e-05
0.000213786
0.000267175
0.000147338
-0.000227334
-0.000107341
7.95342e-07
-0.000220342
9.42688e-05
0.000158012
-5.67595e-05
2.18031e-05
-7.27778e-05
-0.000224197
-0.000185252
-0.000207186
-0.000392643
-0.000663629
-0.00112337
-0.00188352
-0.00321609
-0.00540099
-0.0085081
-0.0131797
-0.0194881
-0.02681
-0.0340315
-0.039833
-0.0419396
-0.0367933
-0.0232691
-0.00223812
0.0235051
0.0492806
0.0678871
0.0735211
0.0671369
0.0539731
0.0400638
0.0288358
0.0212891
0.0128424
-0.00281284
-0.0255249
-0.044434
-0.0473214
-0.0326599
-0.0107835
0.00549311
0.0102385
0.0056328
-0.00213372
-0.00821175
-0.0110341
-0.0110337
-0.00821088
-0.0021332
0.00563252
0.0102377
0.00549246
-0.0107836
-0.0326597
-0.0473212
-0.0444337
-0.0255242
-0.00281193
0.0128431
0.0212891
0.0288354
0.0400635
0.053973
0.0671372
0.0735218
0.0678879
0.0492807
0.0235045
-0.00223904
-0.0232701
-0.0367944
-0.0419405
-0.0398332
-0.0340314
-0.0268098
-0.0194878
-0.0131793
-0.00850774
-0.00540082
-0.003216
-0.00188344
-0.00112334
-0.000663646
-0.000392629
-0.00020713
-0.000185291
-0.000224278
-7.27354e-05
2.18271e-05
-5.67795e-05
0.000158197
9.43201e-05
-0.000220523
8.40131e-07
-0.000107413
-0.000227517
-0.000253171
-8.52535e-05
-7.54597e-06
-0.000268183
0.000158012
8.0535e-05
-0.000254075
2.09956e-05
-4.54685e-05
-0.000263848
-7.96437e-05
-0.000117028
-0.000458056
-0.00073399
-0.0013585
-0.00245204
-0.00416726
-0.0069596
-0.0109763
-0.0167619
-0.0242181
-0.0326864
-0.0408778
-0.0472988
-0.048942
-0.0420087
-0.0259377
-0.00158898
0.0280118
0.0573846
0.0782475
0.0850743
0.0792461
0.0659776
0.0510727
0.0374839
0.0260744
0.0129287
-0.00636463
-0.0307619
-0.0498552
-0.0526355
-0.0379359
-0.0160422
0.000635431
0.00642483
0.00332662
-0.00340372
-0.00952883
-0.012908
-0.0129076
-0.00952814
-0.00340343
0.00332612
0.00642391
0.000634758
-0.0160423
-0.0379354
-0.0526351
-0.0498549
-0.0307614
-0.0063639
0.0129293
0.0260745
0.0374836
0.0510725
0.0659775
0.0792463
0.0850749
0.0782483
0.057385
0.0280113
-0.0015898
-0.0259385
-0.0420096
-0.0489429
-0.0472992
-0.0408777
-0.0326863
-0.0242179
-0.0167616
-0.010976
-0.00695942
-0.00416714
-0.00245192
-0.00135841
-0.000733966
-0.000458034
-0.000116884
-7.96048e-05
-0.000263963
-4.54124e-05
2.10223e-05
-0.000254246
8.0674e-05
0.000158197
-0.000268332
-7.54306e-06
-8.53202e-05
-0.000253347
-1.36943e-05
0.000263882
0.000242323
-0.00010742
-5.67595e-05
-0.000254075
-0.000327328
1.51755e-05
-8.53892e-05
-0.00022886
-8.88809e-05
-0.000338078
-0.000720205
-0.000855242
-0.00148315
-0.0028544
-0.00497113
-0.00829112
-0.013235
-0.0201522
-0.0287799
-0.0384568
-0.0477556
-0.0545612
-0.0553368
-0.0468681
-0.0286129
-0.0012855
0.0315552
0.0632509
0.0857056
0.0944306
0.09042
0.0782796
0.0633356
0.0481686
0.032561
0.0138866
-0.00922918
-0.0339812
-0.0517515
-0.054162
-0.0407466
-0.0207232
-0.00508593
0.00122932
5.85804e-05
-0.00461208
-0.00966111
-0.0128974
-0.0128972
-0.00966084
-0.0046122
5.7913e-05
0.00122849
-0.00508634
-0.0207229
-0.0407459
-0.0541613
-0.0517511
-0.0339807
-0.00922852
0.0138873
0.0325614
0.0481687
0.0633355
0.0782796
0.09042
0.0944309
0.0857063
0.0632515
0.031555
-0.00128634
-0.0286139
-0.046869
-0.0553378
-0.0545619
-0.0477558
-0.0384567
-0.0287797
-0.0201519
-0.0132347
-0.0082908
-0.00497092
-0.00285418
-0.00148292
-0.000855172
-0.000720306
-0.000338061
-8.87939e-05
-0.000228903
-8.5333e-05
1.52976e-05
-0.000327486
-0.00025425
-5.67817e-05
-0.000107442
0.000242494
0.000264084
-1.36678e-05
-7.98423e-05
-0.000122506
-0.000133395
-0.000112809
2.18031e-05
2.09956e-05
1.51755e-05
2.97467e-05
-0.000222217
-0.000339889
-0.000224366
-0.000505947
-0.000884624
-0.00118449
-0.00218008
-0.0038929
-0.0062132
-0.00987362
-0.0156083
-0.023304
-0.0326683
-0.0432636
-0.0534004
-0.0601341
-0.0598717
-0.0504109
-0.0305877
-0.00104236
0.0336041
0.0658289
0.0889213
0.0998357
0.0983916
0.0882505
0.0742411
0.0583538
0.0386848
0.0141864
-0.0125145
-0.036386
-0.0514186
-0.0530182
-0.0416748
-0.0248736
-0.0114117
-0.00511395
-0.00415184
-0.00581886
-0.00846002
-0.0105716
-0.0105717
-0.00846037
-0.00581951
-0.0041526
-0.00511443
-0.0114115
-0.0248729
-0.0416738
-0.0530173
-0.051418
-0.0363856
-0.012514
0.0141871
0.0386854
0.0583539
0.0742408
0.0882501
0.0983913
0.0998356
0.0889215
0.0658292
0.033604
-0.00104316
-0.0305887
-0.0504118
-0.0598724
-0.0601347
-0.0534005
-0.0432633
-0.0326679
-0.0233037
-0.0156079
-0.00987323
-0.00621305
-0.0038929
-0.00217998
-0.00118436
-0.000884673
-0.000505964
-0.000224279
-0.000339964
-0.000222311
2.9865e-05
1.52997e-05
2.10238e-05
2.18273e-05
-0.000112841
-0.000133483
-0.000122576
-7.98687e-05
-4.70419e-06
-0.000143544
-0.000166093
-4.25792e-05
-7.27778e-05
-4.54685e-05
-8.53892e-05
-0.000222217
-0.000227866
-0.0001947
-0.000237529
-0.000525035
-0.000842242
-0.00134833
-0.00267743
-0.00469952
-0.00746978
-0.0119802
-0.0188584
-0.0274057
-0.0375076
-0.0489021
-0.0592469
-0.0650175
-0.063192
-0.0523385
-0.0306072
0.000910263
0.0362208
0.0678071
0.0909908
0.103936
0.105185
0.0973891
0.0847991
0.0682853
0.0443553
0.0137021
-0.0166496
-0.039386
-0.0512986
-0.0521533
-0.0437102
-0.0314109
-0.0213193
-0.015789
-0.0128701
-0.0109661
-0.0100875
-0.0101321
-0.0101325
-0.0100886
-0.0109674
-0.012871
-0.0157891
-0.0213186
-0.0314098
-0.0437092
-0.0521525
-0.0512981
-0.0393858
-0.0166493
0.0137027
0.044356
0.0682855
0.0847985
0.0973884
0.105184
0.103936
0.0909909
0.0678075
0.0362213
0.000910045
-0.0306081
-0.0523393
-0.0631925
-0.0650181
-0.0592473
-0.048902
-0.0375073
-0.0274055
-0.0188583
-0.0119798
-0.00746947
-0.00469947
-0.00267736
-0.0013481
-0.000842141
-0.000525052
-0.000237422
-0.000194615
-0.000227968
-0.000222312
-8.53327e-05
-4.54114e-05
-7.27349e-05
-4.25392e-05
-0.000166187
-0.000143629
-4.69618e-06
0.000150697
0.000124878
8.94152e-05
0.000103264
-0.000224197
-0.000263848
-0.00022886
-0.000339889
-0.0001947
-0.000250351
-0.000556043
-0.000791071
-0.0011554
-0.00189396
-0.00320732
-0.00532774
-0.00864655
-0.0139643
-0.0216374
-0.0309724
-0.0421003
-0.0544005
-0.0647504
-0.0696224
-0.0666997
-0.0544488
-0.0309592
0.00160584
0.0364089
0.0668734
0.0901955
0.105073
0.109556
0.105225
0.0951731
0.0785663
0.0510731
0.0152376
-0.0180786
-0.0394929
-0.0482669
-0.0483852
-0.0433453
-0.0364394
-0.0306413
-0.026454
-0.0218777
-0.0162442
-0.0112423
-0.00859492
-0.00859562
-0.011244
-0.016246
-0.0218786
-0.0264536
-0.03064
-0.0364378
-0.043344
-0.0483843
-0.0482664
-0.0394926
-0.0180783
0.0152382
0.051074
0.0785666
0.0951724
0.105224
0.109555
0.105073
0.0901955
0.0668737
0.0364096
0.00160601
-0.03096
-0.0544499
-0.0667003
-0.0696229
-0.064751
-0.0544007
-0.0420999
-0.030972
-0.0216372
-0.0139639
-0.00864604
-0.00532745
-0.00320724
-0.00189384
-0.00115528
-0.000791141
-0.000556089
-0.00025019
-0.000194616
-0.000339965
-0.000228905
-0.000263966
-0.000224278
0.000103379
8.95044e-05
0.000124979
0.000150794
1.32081e-05
-0.000112225
-0.000153301
-0.000106504
-0.000185252
-7.96437e-05
-8.88809e-05
-0.000224366
-0.000237529
-0.000556043
-0.000857701
-0.000951525
-0.00159653
-0.00274186
-0.0042014
-0.00675527
-0.0108284
-0.0166684
-0.0246948
-0.0347636
-0.0467161
-0.0591085
-0.0687787
-0.0727312
-0.068787
-0.0548982
-0.0301994
0.00179042
0.0346771
0.0633507
0.0860014
0.101671
0.109154
0.108907
0.101761
0.0850863
0.054909
0.0155504
-0.0196421
-0.0397197
-0.0456102
-0.0449978
-0.0434974
-0.0423654
-0.0411382
-0.0383226
-0.0321886
-0.023017
-0.0139222
-0.00844836
-0.00844921
-0.0139243
-0.0230189
-0.0321893
-0.0383218
-0.0411363
-0.0423634
-0.043496
-0.0449969
-0.0456097
-0.0397193
-0.0196418
0.0155509
0.0549097
0.0850865
0.101761
0.108905
0.109153
0.101671
0.0860013
0.0633507
0.0346776
0.00179092
-0.0301998
-0.0548992
-0.0687877
-0.0727315
-0.068779
-0.0591087
-0.0467157
-0.034763
-0.0246944
-0.0166682
-0.0108281
-0.00675497
-0.0042013
-0.00274187
-0.00159638
-0.000951408
-0.000857809
-0.000556089
-0.000237423
-0.000224277
-8.87923e-05
-7.96051e-05
-0.000185289
-0.000106529
-0.000153343
-0.00011225
1.32166e-05
-0.000107248
-0.000204354
-0.000176044
-0.000232388
-0.000207186
-0.000117028
-0.000338078
-0.000505947
-0.000525035
-0.000791071
-0.000951525
-0.00114901
-0.00209438
-0.00340343
-0.00508152
-0.00836023
-0.0133438
-0.0198599
-0.0287422
-0.0400973
-0.052783
-0.0647076
-0.0734701
-0.0763786
-0.0706487
-0.0543675
-0.0286592
0.00199432
0.032771
0.0597057
0.0809741
0.0964979
0.106729
0.11076
0.106059
0.0888165
0.0566487
0.0153568
-0.0209042
-0.0402716
-0.0443605
-0.043836
-0.0464411
-0.0515393
-0.0549269
-0.0533567
-0.0459197
-0.034064
-0.0217979
-0.014022
-0.0140228
-0.0217999
-0.0340658
-0.0459201
-0.0533557
-0.0549249
-0.0515372
-0.0464396
-0.0438351
-0.04436
-0.0402714
-0.0209042
0.0153569
0.056649
0.0888165
0.106058
0.110759
0.106728
0.0964977
0.0809745
0.0597061
0.0327717
0.00199515
-0.0286589
-0.054368
-0.0706496
-0.076379
-0.0734704
-0.0647079
-0.0527831
-0.040097
-0.0287417
-0.0198596
-0.0133436
-0.00835989
-0.00508117
-0.00340335
-0.00209428
-0.00114873
-0.000951405
-0.00079114
-0.000525055
-0.000505963
-0.00033806
-0.000116885
-0.000207128
-0.000232445
-0.000176066
-0.000204427
-0.000107322
2.43127e-06
2.24141e-05
4.1463e-05
-0.000159011
-0.000392643
-0.000458056
-0.000720205
-0.000884624
-0.000842242
-0.0011554
-0.00159653
-0.00209438
-0.00318127
-0.00461313
-0.00660431
-0.0103945
-0.0159272
-0.023121
-0.0330658
-0.0455793
-0.0587193
-0.0703721
-0.0787935
-0.0808748
-0.073209
-0.0550325
-0.0293972
-0.000708519
0.027922
0.0529466
0.0722961
0.0875152
0.100814
0.109352
0.106934
0.0894276
0.0568736
0.0160014
-0.0197428
-0.0383889
-0.0415882
-0.0420587
-0.0491877
-0.0603928
-0.0677875
-0.0669415
-0.0584893
-0.045229
-0.031372
-0.0223226
-0.0223233
-0.0313734
-0.04523
-0.0584892
-0.0669402
-0.0677855
-0.0603907
-0.0491859
-0.0420574
-0.0415875
-0.0383886
-0.0197428
0.0160014
0.0568735
0.0894274
0.106934
0.109351
0.100813
0.0875148
0.0722967
0.0529474
0.0279226
-0.000707956
-0.0293966
-0.0550327
-0.07321
-0.0808757
-0.0787938
-0.0703721
-0.0587194
-0.0455792
-0.0330652
-0.0231203
-0.0159269
-0.0103942
-0.00660386
-0.00461293
-0.00318128
-0.00209428
-0.00159638
-0.00115528
-0.000842144
-0.000884673
-0.000720308
-0.000458036
-0.000392629
-0.000158973
4.16068e-05
2.24803e-05
2.41545e-06
4.32635e-05
-0.000187864
-0.000364247
-0.000379946
-0.000663629
-0.00073399
-0.000855242
-0.00118449
-0.00134833
-0.00189396
-0.00274186
-0.00340343
-0.00461313
-0.00665595
-0.00939214
-0.0137213
-0.0199455
-0.0280932
-0.03888
-0.0518747
-0.0650425
-0.0764022
-0.0841744
-0.0847428
-0.0750403
-0.0558889
-0.031269
-0.00488097
0.0210013
0.042964
0.0595113
0.0741014
0.0899024
0.101877
0.100971
0.0834232
0.0518993
0.0135717
-0.0198426
-0.0373585
-0.040578
-0.0431231
-0.0549484
-0.0714238
-0.0816181
-0.0807635
-0.0716578
-0.0584556
-0.0448756
-0.0358268
-0.0358271
-0.0448761
-0.0584556
-0.071657
-0.080762
-0.0816164
-0.071422
-0.0549465
-0.0431215
-0.0405771
-0.0373583
-0.0198428
0.0135712
0.0518986
0.0834224
0.10097
0.101877
0.0899011
0.0741005
0.0595117
0.0429651
0.0210021
-0.00488062
-0.0312685
-0.0558886
-0.0750409
-0.0847437
-0.0841747
-0.076402
-0.0650423
-0.0518746
-0.0388795
-0.0280926
-0.0199451
-0.0137211
-0.00939186
-0.00665568
-0.00461293
-0.00340335
-0.00274187
-0.00189384
-0.0013481
-0.00118436
-0.000855173
-0.000733966
-0.000663645
-0.000379919
-0.000364244
-0.000187832
4.33179e-05
1.23293e-05
-0.000458951
-0.00076985
-0.000672077
-0.00112337
-0.0013585
-0.00148315
-0.00218008
-0.00267743
-0.00320732
-0.0042014
-0.00508152
-0.00660431
-0.00939214
-0.0128785
-0.0178912
-0.0253206
-0.0349107
-0.0466876
-0.0603527
-0.0739636
-0.0851281
-0.0916043
-0.089905
-0.0781978
-0.0583409
-0.0343053
-0.00957782
0.0133532
0.031695
0.0456543
0.0598468
0.0771523
0.0908591
0.0905005
0.0729803
0.0432158
0.00881893
-0.0208084
-0.0369984
-0.0416962
-0.0479264
-0.0646897
-0.085412
-0.0973527
-0.0962893
-0.0873651
-0.0758717
-0.0645001
-0.0567882
-0.0567881
-0.0644996
-0.0758705
-0.0873635
-0.0962877
-0.0973514
-0.0854107
-0.064688
-0.0479247
-0.0416951
-0.0369984
-0.0208091
0.0088178
0.0432144
0.0729789
0.0904997
0.0908586
0.0771514
0.0598459
0.0456546
0.0316966
0.0133547
-0.00957714
-0.0343048
-0.0583404
-0.0781979
-0.0899058
-0.091605
-0.0851283
-0.0739635
-0.0603525
-0.0466873
-0.0349102
-0.0253201
-0.0178907
-0.0128782
-0.00939186
-0.00660386
-0.00508117
-0.0042013
-0.00320725
-0.00267736
-0.00217998
-0.00148292
-0.00135841
-0.00112334
-0.000671979
-0.000769943
-0.000459004
1.2403e-05
-3.85953e-05
-0.000533692
-0.000956617
-0.00113601
-0.00188352
-0.00245204
-0.0028544
-0.0038929
-0.00469952
-0.00532774
-0.00675527
-0.00836023
-0.0103945
-0.0137213
-0.0178912
-0.0236208
-0.0320987
-0.0429209
-0.0555993
-0.0700732
-0.0843397
-0.0953102
-0.100444
-0.0969614
-0.0842497
-0.0642542
-0.0407375
-0.0178056
0.00158073
0.0163135
0.0287506
0.0431907
0.0612749
0.0757
0.0759893
0.0594362
0.0327027
0.00411948
-0.0196047
-0.0336187
-0.0406789
-0.0514903
-0.0725613
-0.095922
-0.108636
-0.107591
-0.0998524
-0.0914464
-0.0838294
-0.0785747
-0.0785742
-0.0838277
-0.091444
-0.0998498
-0.107589
-0.108635
-0.0959212
-0.07256
-0.0514885
-0.0406776
-0.0336187
-0.0196058
0.00411782
0.0327008
0.0594345
0.0759885
0.0756999
0.0612746
0.04319
0.0287505
0.0163146
0.00158233
-0.0178047
-0.0407373
-0.0642541
-0.0842498
-0.096962
-0.100445
-0.0953106
-0.0843397
-0.0700729
-0.0555988
-0.0429204
-0.0320981
-0.0236201
-0.0178907
-0.0137211
-0.0103942
-0.00835989
-0.00675497
-0.00532746
-0.00469948
-0.0038929
-0.00285419
-0.00245192
-0.00188344
-0.00113579
-0.000956578
-0.000533684
-3.85125e-05
-0.000249233
-0.000934251
-0.00166733
-0.00230146
-0.00321609
-0.00416726
-0.00497113
-0.0062132
-0.00746978
-0.00864655
-0.0108284
-0.0133438
-0.0159272
-0.0199455
-0.0253206
-0.0320987
-0.0415651
-0.0535779
-0.0670866
-0.0820206
-0.0963666
-0.106561
-0.110008
-0.104841
-0.0912887
-0.0710393
-0.0481213
-0.0275904
-0.0123125
-0.000919286
0.0105728
0.0249586
0.042413
0.0562276
0.0568514
0.0416363
0.0186988
-0.00271253
-0.0188945
-0.0300848
-0.0399636
-0.0554229
-0.0794206
-0.103672
-0.116584
-0.116229
-0.110632
-0.106165
-0.10323
-0.101196
-0.101195
-0.103228
-0.106162
-0.110629
-0.116227
-0.116582
-0.103671
-0.0794198
-0.0554216
-0.0399626
-0.030085
-0.018896
-0.00271487
0.0186964
0.0416343
0.0568504
0.0562274
0.0424131
0.0249583
0.0105724
-0.000918868
-0.0123112
-0.0275892
-0.048121
-0.0710395
-0.091289
-0.104841
-0.110008
-0.106562
-0.0963667
-0.0820203
-0.0670861
-0.0535774
-0.0415646
-0.0320981
-0.0253201
-0.0199451
-0.0159269
-0.0133436
-0.0108281
-0.00864605
-0.00746947
-0.00621305
-0.00497093
-0.00416714
-0.003216
-0.00230127
-0.00166722
-0.000934161
-0.000249146
-0.000581851
-0.00170054
-0.00297253
-0.00419313
-0.00540099
-0.0069596
-0.00829112
-0.00987362
-0.0119802
-0.0139643
-0.0166684
-0.0198599
-0.023121
-0.0280932
-0.0349107
-0.0429209
-0.0535779
-0.0670405
-0.0815303
-0.0967975
-0.110895
-0.119938
-0.12129
-0.114024
-0.0989585
-0.0777687
-0.0552689
-0.0370673
-0.0252298
-0.0160447
-0.00490214
0.00910616
0.0249465
0.0371542
0.0376102
0.0238002
0.00510377
-0.00849759
-0.0165177
-0.0247071
-0.0374046
-0.0568532
-0.0822416
-0.10621
-0.119552
-0.121075
-0.118556
-0.118465
-0.120627
-0.122252
-0.122251
-0.120624
-0.118461
-0.118552
-0.121072
-0.11955
-0.106209
-0.0822414
-0.0568528
-0.0374044
-0.0247078
-0.0165196
-0.00850046
0.00510083
0.023798
0.0376091
0.037154
0.0249467
0.00910635
-0.00490224
-0.0160447
-0.0252289
-0.0370659
-0.055268
-0.0777689
-0.098959
-0.114024
-0.12129
-0.119938
-0.110896
-0.0967975
-0.0815301
-0.0670402
-0.0535774
-0.0429204
-0.0349102
-0.0280926
-0.0231203
-0.0198596
-0.0166682
-0.0139639
-0.0119798
-0.00987324
-0.00829081
-0.00695942
-0.00540082
-0.00419299
-0.00297246
-0.00170047
-0.000581797
-0.00102429
-0.00276389
-0.00473088
-0.00674084
-0.0085081
-0.0109763
-0.013235
-0.0156083
-0.0188584
-0.0216374
-0.0246948
-0.0287422
-0.0330658
-0.03888
-0.0466876
-0.0555993
-0.0670866
-0.0815303
-0.0967355
-0.112173
-0.125781
-0.13356
-0.132914
-0.123665
-0.106945
-0.0848212
-0.0629793
-0.0467143
-0.0369463
-0.0284575
-0.016867
-0.00279393
0.0117017
0.0223489
0.0228128
0.0111684
-0.00235371
-0.00770711
-0.00741541
-0.0121384
-0.0265321
-0.0483751
-0.0736064
-0.096685
-0.111129
-0.11576
-0.117027
-0.121368
-0.128603
-0.134013
-0.134011
-0.128599
-0.121364
-0.117023
-0.115757
-0.111127
-0.096684
-0.0736063
-0.0483756
-0.026533
-0.0121397
-0.00741745
-0.0077099
-0.00235654
0.0111664
0.022812
0.0223488
0.011702
-0.0027934
-0.0168668
-0.0284578
-0.0369463
-0.0467134
-0.0629785
-0.0848214
-0.106946
-0.123666
-0.132914
-0.133561
-0.125782
-0.112174
-0.0967354
-0.0815301
-0.0670861
-0.0555988
-0.0466873
-0.0388795
-0.0330652
-0.0287417
-0.0246944
-0.0216372
-0.0188583
-0.0156079
-0.0132347
-0.010976
-0.00850774
-0.00674063
-0.00473077
-0.00276381
-0.00102427
-0.00160512
-0.0042328
-0.00720615
-0.0104563
-0.0131797
-0.0167619
-0.0201522
-0.023304
-0.0274057
-0.0309724
-0.0347636
-0.0400973
-0.0455793
-0.0518747
-0.0603527
-0.0700732
-0.0820206
-0.0967975
-0.112173
-0.12693
-0.13885
-0.144469
-0.141266
-0.129423
-0.110423
-0.0873548
-0.0664085
-0.0516884
-0.0430506
-0.0347783
-0.0230233
-0.00913241
0.00377558
0.0123374
0.0123805
0.00318727
-0.00492286
-0.00258406
0.00545776
0.00492496
-0.00919906
-0.0313951
-0.0551597
-0.0770226
-0.0930236
-0.101475
-0.10678
-0.115235
-0.127075
-0.136031
-0.136029
-0.127072
-0.11523
-0.106776
-0.101471
-0.0930211
-0.0770211
-0.0551596
-0.0313964
-0.00920119
0.00492262
0.00545535
-0.00258672
-0.00492538
0.00318558
0.0123798
0.0123372
0.00377569
-0.00913194
-0.0230229
-0.0347786
-0.0430511
-0.0516882
-0.0664078
-0.0873547
-0.110424
-0.129424
-0.141267
-0.14447
-0.138851
-0.126931
-0.112174
-0.0967974
-0.0820203
-0.0700729
-0.0603525
-0.0518746
-0.0455792
-0.040097
-0.034763
-0.030972
-0.0274055
-0.0233037
-0.0201519
-0.0167616
-0.0131793
-0.0104561
-0.00720591
-0.00423261
-0.00160512
-0.00242215
-0.00642154
-0.0107641
-0.0155544
-0.0194881
-0.0242181
-0.0287799
-0.0326683
-0.0375076
-0.0421003
-0.0467161
-0.052783
-0.0587193
-0.0650425
-0.0739636
-0.0843397
-0.0963666
-0.110895
-0.125781
-0.13885
-0.148121
-0.15101
-0.1446
-0.129201
-0.107225
-0.0831612
-0.0628256
-0.0486551
-0.0399857
-0.0314677
-0.0196384
-0.00586291
0.00548385
0.0116104
0.0107619
0.00388426
0.000576895
0.00915919
0.0238009
0.0279923
0.0158034
-0.00545581
-0.0274056
-0.0482205
-0.0661426
-0.0789108
-0.0885507
-0.100885
-0.116703
-0.128698
-0.128697
-0.116699
-0.10088
-0.0885466
-0.0789074
-0.0661399
-0.0482187
-0.0274053
-0.00545746
0.0158004
0.027989
0.0237979
0.0091567
0.00057503
0.00388325
0.0107616
0.0116103
0.00548384
-0.00586257
-0.0196379
-0.0314677
-0.0399862
-0.0486553
-0.0628253
-0.0831609
-0.107225
-0.129203
-0.144601
-0.151011
-0.148121
-0.138851
-0.125782
-0.110896
-0.0963667
-0.0843396
-0.0739635
-0.0650423
-0.0587194
-0.0527831
-0.0467157
-0.0420999
-0.0375073
-0.0326679
-0.0287797
-0.0242179
-0.0194878
-0.0155543
-0.0107638
-0.00642138
-0.0024222
-0.00331291
-0.00899683
-0.0149765
-0.0214596
-0.02681
-0.0326864
-0.0384568
-0.0432636
-0.0489021
-0.0544005
-0.0591085
-0.0647076
-0.0703721
-0.0764022
-0.0851281
-0.0953102
-0.106561
-0.119938
-0.13356
-0.144469
-0.15101
-0.150996
-0.140815
-0.121416
-0.0966307
-0.0718539
-0.0515609
-0.036888
-0.0273808
-0.0183874
-0.00641393
0.00751614
0.0175274
0.0210628
0.0187803
0.0136043
0.0140075
0.0272721
0.0473712
0.0565115
0.0471614
0.0272847
0.00701874
-0.0127709
-0.032492
-0.0497302
-0.0640036
-0.0800154
-0.09896
-0.113187
-0.113186
-0.0989572
-0.0800116
-0.0639998
-0.0497268
-0.0324893
-0.0127693
0.00701889
0.027283
0.0471582
0.0565078
0.0473679
0.0272697
0.0140064
0.0136044
0.018781
0.0210633
0.0175276
0.00751641
-0.00641339
-0.0183869
-0.0273808
-0.0368884
-0.0515611
-0.0718538
-0.0966309
-0.121417
-0.140817
-0.150997
-0.151011
-0.14447
-0.133561
-0.119938
-0.106562
-0.0953106
-0.0851282
-0.076402
-0.0703721
-0.0647079
-0.0591087
-0.0544007
-0.048902
-0.0432633
-0.0384567
-0.0326863
-0.0268098
-0.0214597
-0.0149763
-0.0089967
-0.00331299
-0.0042534
-0.0118483
-0.0194724
-0.0273847
-0.0340315
-0.0408778
-0.0477556
-0.0534004
-0.0592469
-0.0647504
-0.0687787
-0.0734701
-0.0787935
-0.0841744
-0.0916043
-0.100444
-0.110008
-0.12129
-0.132914
-0.141266
-0.1446
-0.140815
-0.126412
-0.103619
-0.0771829
-0.0523607
-0.032146
-0.0173808
-0.00792914
0.00060544
0.0121457
0.0258794
0.0342483
0.0346391
0.0299809
0.0255814
0.0288397
0.045921
0.0706831
0.0845793
0.0782686
0.0599899
0.0416867
0.0236837
0.0030537
-0.0182663
-0.0371782
-0.0564002
-0.0772546
-0.0925866
-0.092586
-0.0772528
-0.0563975
-0.0371749
-0.0182631
0.00305612
0.0236849
0.0416864
0.0599883
0.0782659
0.084576
0.0706797
0.0459185
0.0288388
0.0255823
0.0299825
0.0346404
0.0342488
0.0258795
0.0121458
0.000605998
-0.00792846
-0.0173807
-0.0321465
-0.0523609
-0.0771828
-0.10362
-0.126413
-0.140817
-0.144601
-0.141267
-0.132914
-0.12129
-0.110008
-0.100445
-0.091605
-0.0841747
-0.0787938
-0.0734703
-0.068779
-0.064751
-0.0592473
-0.0534005
-0.0477558
-0.0408777
-0.0340314
-0.0273848
-0.0194723
-0.0118483
-0.00425354
-0.00493174
-0.0140747
-0.0229683
-0.0319678
-0.039833
-0.0472988
-0.0545612
-0.0601341
-0.0650175
-0.0696224
-0.0727312
-0.0763786
-0.0808748
-0.0847428
-0.089905
-0.0969614
-0.104841
-0.114024
-0.123665
-0.129423
-0.129201
-0.121416
-0.103619
-0.0788179
-0.0515108
-0.0266019
-0.00657685
0.00729238
0.0156475
0.0232266
0.0341647
0.047197
0.053118
0.0492058
0.0407085
0.0358716
0.041201
0.061145
0.0888483
0.105686
0.101239
0.0842448
0.0681817
0.0527577
0.0320671
0.00711606
-0.0162693
-0.0380351
-0.0594179
-0.0746208
-0.0746207
-0.0594174
-0.0380338
-0.0162669
0.00711874
0.032069
0.0527581
0.0681805
0.0842429
0.101237
0.105684
0.0888457
0.0611426
0.0411999
0.0358725
0.0407107
0.049208
0.0531194
0.0471973
0.0341644
0.0232268
0.0156486
0.00729353
-0.00657666
-0.0266023
-0.051511
-0.0788177
-0.10362
-0.121417
-0.129203
-0.129424
-0.123666
-0.114024
-0.104841
-0.0969619
-0.0899058
-0.0847437
-0.0808757
-0.076379
-0.0727315
-0.0696229
-0.0650181
-0.0601347
-0.0545618
-0.0472992
-0.0398332
-0.0319681
-0.0229684
-0.0140748
-0.0049319
-0.00501254
-0.0147652
-0.0242186
-0.0336045
-0.0419396
-0.048942
-0.0553368
-0.0598717
-0.063192
-0.0666997
-0.068787
-0.0706487
-0.073209
-0.0750403
-0.0781978
-0.0842497
-0.0912887
-0.0989585
-0.106945
-0.110423
-0.107225
-0.0966307
-0.0771829
-0.0515108
-0.0236156
0.00101934
0.0195888
0.0309061
0.0373501
0.0439777
0.0542452
0.0657053
0.0680363
0.0587711
0.0457292
0.0403489
0.0479855
0.0702029
0.0987852
0.116272
0.112621
0.0972554
0.0842762
0.0724002
0.0526562
0.025064
-0.00187969
-0.0249813
-0.0453436
-0.0592053
-0.0592057
-0.0453444
-0.0249816
-0.00187887
0.0250656
0.0526574
0.0723997
0.0842742
0.097253
0.112619
0.116271
0.0987841
0.0702012
0.0479841
0.040349
0.0457311
0.0587738
0.0680387
0.0657064
0.0542449
0.0439773
0.0373509
0.0309079
0.0195902
0.00101975
-0.0236158
-0.051511
-0.0771828
-0.0966309
-0.107225
-0.110424
-0.106946
-0.098959
-0.091289
-0.0842498
-0.0781978
-0.0750408
-0.07321
-0.0706495
-0.0687876
-0.0667003
-0.0631925
-0.0598724
-0.0553378
-0.0489429
-0.0419404
-0.0336052
-0.0242189
-0.0147654
-0.00501268
-0.00453035
-0.0136472
-0.0220146
-0.029804
-0.0367933
-0.0420087
-0.0468681
-0.0504109
-0.0523385
-0.0544488
-0.0548982
-0.0543675
-0.0550325
-0.0558889
-0.0583409
-0.0642542
-0.0710393
-0.0777687
-0.0848212
-0.0873548
-0.0831612
-0.0718539
-0.0523607
-0.0266019
0.00101934
0.0237723
0.039008
0.0468297
0.0517641
0.0582249
0.067952
0.077051
0.0751485
0.0606818
0.0440995
0.0395009
0.0502943
0.0740677
0.101279
0.117368
0.114138
0.101305
0.0922441
0.08451
0.0666886
0.0380606
0.00931419
-0.013473
-0.031351
-0.0428983
-0.042899
-0.0313528
-0.013475
0.00931301
0.0380604
0.0666886
0.084509
0.0922416
0.101303
0.114137
0.117368
0.10128
0.0740675
0.0502933
0.0395003
0.0441002
0.0606841
0.0751514
0.077053
0.0679522
0.058224
0.0517638
0.0468308
0.03901
0.0237738
0.00101974
-0.0266023
-0.052361
-0.0718538
-0.0831609
-0.0873548
-0.0848214
-0.0777689
-0.0710395
-0.0642541
-0.0583404
-0.0558886
-0.0550326
-0.054368
-0.0548991
-0.0544498
-0.0523393
-0.0504118
-0.046869
-0.0420096
-0.0367943
-0.029805
-0.0220153
-0.0136477
-0.00453056
-0.00283645
-0.0090108
-0.0142852
-0.0188221
-0.0232691
-0.0259377
-0.0286129
-0.0305877
-0.0306072
-0.0309592
-0.0301994
-0.0286592
-0.0293972
-0.031269
-0.0343053
-0.0407375
-0.0481213
-0.0552689
-0.0629793
-0.0664085
-0.0628256
-0.0515609
-0.032146
-0.00657685
0.0195888
0.039008
0.0502907
0.0553019
0.0598656
0.0666073
0.0752094
0.0808101
0.0743664
0.0557468
0.0374974
0.035043
0.0490707
0.0729596
0.096697
0.110165
0.107719
0.0983665
0.093529
0.0900452
0.0752762
0.0479877
0.0199997
-0.000539918
-0.014713
-0.0233001
-0.0233011
-0.0147155
-0.000543399
0.0199962
0.047985
0.0752744
0.0900435
0.0935266
0.0983637
0.107718
0.110165
0.0966987
0.072961
0.0490708
0.035042
0.0374966