/*--------------------------------*- C++ -*----------------------------------*\
  =========                 |
  \\      /  F ield         | OpenFOAM: The Open Source CFD Toolbox
   \\    /   O peration     | Website:  https://openfoam.org
    \\  /    A nd           | Version:  10
     \\/     M anipulation  |
\*---------------------------------------------------------------------------*/
FoamFile
{
    format      ascii;
    class       volScalarField;
    location    "37";
    object      h_0;
}
// * * * * * * * * * * * * * * * * * * * * * * * * * * * * * * * * * * * * * //

dimensions      [0 1 0 0 0 0 0];

internalField   nonuniform List<scalar> 
10000
(
0.000250384
0.000256834
0.000141892
0.00015003
-0.000230763
-0.000253221
-1.09579e-05
-8.38509e-05
-3.18321e-06
0.000151674
6.12405e-06
-0.000108912
4.03684e-06
4.26306e-05
1.45592e-05
-3.40803e-05
-0.00024327
-0.000569407
-0.00100916
-0.00158904
-0.00240449
-0.00329962
-0.00424275
-0.0049299
-0.00502628
-0.00456491
-0.00288875
-6.753e-05
0.00338407
0.00661074
0.00893747
0.0097514
0.00858948
0.00632698
0.00400121
0.00272352
0.00233146
0.00190653
-8.79454e-06
-0.00340351
-0.00648971
-0.00712451
-0.00488763
-0.00142412
0.00112049
0.00155168
0.000343079
-0.00118885
-0.00201034
-0.00217368
-0.00217365
-0.00201028
-0.00118881
0.000343075
0.00155164
0.00112043
-0.00142423
-0.00488779
-0.00712466
-0.00648976
-0.0034034
-8.60225e-06
0.00190667
0.00233146
0.00272344
0.00400118
0.00632712
0.00858977
0.00975176
0.00893774
0.00661092
0.00338414
-6.76083e-05
-0.00288893
-0.00456512
-0.00502642
-0.00493007
-0.00424289
-0.00329972
-0.00240454
-0.00158904
-0.00100915
-0.000569351
-0.000243182
-3.39969e-05
1.4634e-05
4.26848e-05
4.02129e-06
-0.000108985
6.1303e-06
0.000151772
-3.17293e-06
-8.38796e-05
-1.09322e-05
-0.000253398
-0.00023095
0.000150132
0.000142003
0.000257052
0.000250595
0.000256834
-0.000117634
-0.000262233
0.000272798
-0.000112785
-8.31474e-05
0.000270368
-0.000130908
-0.000139582
0.000129581
-0.000119439
-0.000199263
2.71161e-05
-0.000192485
-0.000455076
-0.000525823
-0.000929615
-0.00168544
-0.00274054
-0.00419962
-0.0063751
-0.00894901
-0.0117969
-0.0140391
-0.0147683
-0.0137082
-0.00912742
-0.00120843
0.00864338
0.0180486
0.0249612
0.0273447
0.024178
0.0179023
0.0115321
0.00799323
0.00697337
0.00586408
0.000505768
-0.00909243
-0.0178054
-0.0193951
-0.0127462
-0.00256755
0.00491279
0.00636423
0.00306308
-0.00125884
-0.003702
-0.00427928
-0.00427914
-0.0037017
-0.00125861
0.00306313
0.00636413
0.00491267
-0.00256772
-0.0127465
-0.0193953
-0.0178053
-0.00909203
0.000506331
0.00586444
0.00697329
0.00799289
0.0115318
0.0179024
0.0241784
0.0273452
0.0249616
0.0180487
0.00864319
-0.0012089
-0.00912802
-0.0137087
-0.0147685
-0.0140393
-0.0117969
-0.00894888
-0.00637493
-0.00419943
-0.00274046
-0.00168536
-0.000929526
-0.000525814
-0.000455128
-0.000192456
2.71829e-05
-0.000199333
-0.000119469
0.000129682
-0.000139663
-0.000130983
0.000270572
-8.32099e-05
-0.00011286
0.00027301
-0.000262445
-0.000117716
0.000257051
0.000141892
-0.000262233
-0.000359523
0.000218409
-4.37668e-06
-6.17702e-06
0.000244602
-0.000140491
-0.000161494
9.22574e-05
-0.000157332
-0.000168277
4.55866e-05
-0.00036791
-0.000761061
-0.00094203
-0.00165595
-0.00294858
-0.00469331
-0.00715314
-0.0106944
-0.0148998
-0.0193937
-0.0229176
-0.0242285
-0.0221126
-0.0144728
-0.00171446
0.014098
0.029461
0.0407953
0.0443921
0.0394758
0.029746
0.0198738
0.0137459
0.0113336
0.00879511
-2.81128e-05
-0.0151768
-0.0287733
-0.0311715
-0.0208509
-0.00505245
0.00659624
0.00920459
0.00452913
-0.00194667
-0.00597527
-0.00720843
-0.00720817
-0.0059747
-0.00194628
0.00452912
0.00920428
0.0065959
-0.00505271
-0.0208511
-0.0311717
-0.0287732
-0.0151762
-2.73649e-05
0.00879556
0.0113335
0.0137454
0.0198734
0.029746
0.0394763
0.0443928
0.0407958
0.029461
0.0140977
-0.00171509
-0.0144736
-0.0221133
-0.0242289
-0.0229178
-0.0193937
-0.0148996
-0.0106942
-0.0071529
-0.0046932
-0.00294852
-0.00165584
-0.00094199
-0.000761152
-0.000367911
4.57299e-05
-0.000168292
-0.000157375
9.23455e-05
-0.000161584
-0.000140582
0.000244774
-6.16938e-06
-4.33418e-06
0.000218615
-0.000359799
-0.000262449
0.000142
0.00015003
0.000272798
0.000218409
5.56333e-05
-0.000223347
-0.000266724
-0.000108587
-0.000114225
-3.93549e-05
0.000101309
-0.000111655
-0.000232466
-0.0001577
-0.000377375
-0.00066086
-0.00111845
-0.00227593
-0.00414733
-0.00667394
-0.0103716
-0.0154553
-0.0213504
-0.0272865
-0.0319194
-0.0336424
-0.0299572
-0.0191013
-0.00177723
0.0195254
0.040618
0.0560934
0.0607842
0.0547346
0.0425817
0.0300292
0.021067
0.0162983
0.0112268
-0.00113226
-0.0208887
-0.0381896
-0.0412633
-0.0284116
-0.00873124
0.00591398
0.00972263
0.0046304
-0.00309981
-0.00853013
-0.0106528
-0.0106524
-0.00852936
-0.00309932
0.00463024
0.00972201
0.00591338
-0.00873155
-0.0284117
-0.0412633
-0.0381894
-0.0208881
-0.00113141
0.0112273
0.0162983
0.0210667
0.0300289
0.0425819
0.0547353
0.0607852
0.0560942
0.0406183
0.0195251
-0.0017779
-0.0191022
-0.0299582
-0.0336431
-0.0319197
-0.0272866
-0.0213504
-0.0154552
-0.0103714
-0.00667372
-0.00414719
-0.00227574
-0.00111823
-0.000660757
-0.000377348
-0.000157663
-0.000232523
-0.000111682
0.000101423
-3.93108e-05
-0.000114258
-0.000108614
-0.000266874
-0.000223531
5.56726e-05
0.000218617
0.000273013
0.000150134
-0.000230763
-0.000112785
-4.37668e-06
-0.000223347
9.8508e-05
0.000160922
-5.69197e-05
2.47012e-05
-7.39259e-05
-0.000224942
-0.000180398
-0.00020407
-0.000389822
-0.000657865
-0.00111425
-0.00186903
-0.00318949
-0.00535568
-0.00843637
-0.0130819
-0.0193659
-0.0266636
-0.0338988
-0.0397595
-0.0419665
-0.0369559
-0.0235964
-0.0027092
0.0230021
0.0488642
0.0676528
0.0735137
0.0673444
0.0542732
0.0403027
0.0289751
0.0214237
0.013084
-0.0024614
-0.0251552
-0.044212
-0.0473941
-0.0330415
-0.0112627
0.0052106
0.0102922
0.00588946
-0.00192986
-0.00822108
-0.0112182
-0.0112178
-0.00822022
-0.00192935
0.00588918
0.0102914
0.00520995
-0.0112629
-0.0330413
-0.0473938
-0.0442116
-0.0251545
-0.0024605
0.0130846
0.0214237
0.0289747
0.0403025
0.0542732
0.0673447
0.0735143
0.0676535
0.0488643
0.0230014
-0.00271013
-0.0235974
-0.0369569
-0.0419674
-0.0397598
-0.0338987
-0.0266634
-0.0193656
-0.0130815
-0.00843602
-0.00535551
-0.0031894
-0.00186896
-0.00111422
-0.000657881
-0.000389809
-0.000204012
-0.000180434
-0.000225027
-7.38846e-05
2.47271e-05
-5.69413e-05
0.000161111
9.85641e-05
-0.00022353
-4.33556e-06
-0.000112861
-0.000230949
-0.000253221
-8.31474e-05
-6.17702e-06
-0.000266724
0.000160922
7.45653e-05
-0.000258021
2.49833e-05
-4.92878e-05
-0.000264202
-7.30432e-05
-0.000116281
-0.000454803
-0.000723102
-0.00134252
-0.00242552
-0.00412399
-0.00689838
-0.010887
-0.0166458
-0.0240777
-0.0325262
-0.0407451
-0.0472381
-0.048995
-0.0422166
-0.0263333
-0.00213034
0.0274529
0.0569256
0.0779894
0.0850672
0.0794784
0.0663164
0.0513688
0.0377007
0.0263054
0.013272
-0.00593148
-0.0303595
-0.0496495
-0.0527316
-0.0383109
-0.0164947
0.000352438
0.00642683
0.00350476
-0.00325415
-0.00953823
-0.0130492
-0.0130489
-0.00953755
-0.00325387
0.00350426
0.00642591
0.000351773
-0.0164947
-0.0383104
-0.0527312
-0.0496491
-0.030359
-0.00593076
0.0132726
0.0263055
0.0377005
0.0513686
0.0663163
0.0794786
0.0850678
0.0779902
0.056926
0.0274524
-0.00213117
-0.0263341
-0.0422175
-0.0489959
-0.0472385
-0.0407451
-0.032526
-0.0240775
-0.0166455
-0.0108866
-0.0068982
-0.00412387
-0.00242541
-0.00134243
-0.000723078
-0.000454784
-0.000116138
-7.30001e-05
-0.000264319
-4.92338e-05
2.5014e-05
-0.000258195
7.46992e-05
0.00016111
-0.000266872
-6.17326e-06
-8.32133e-05
-0.000253397
-1.09579e-05
0.000270368
0.000244602
-0.000108587
-5.69197e-05
-0.000258021
-0.000325963
2.02446e-05
-8.88666e-05
-0.000228037
-8.67726e-05
-0.000343795
-0.000717106
-0.000841732
-0.00146743
-0.0028252
-0.00491751
-0.00821148
-0.0131212
-0.0200058
-0.0286058
-0.0382727
-0.0476113
-0.0545013
-0.0554113
-0.0471274
-0.0290762
-0.00188896
0.0309344
0.0627323
0.0853999
0.0943923
0.0906211
0.0785993
0.0636564
0.0484608
0.032896
0.0143332
-0.00871678
-0.0335543
-0.0515631
-0.0542586
-0.0410514
-0.0210685
-0.00530766
0.00120104
0.000160426
-0.00450245
-0.00962564
-0.0129288
-0.0129287
-0.00962539
-0.00450259
0.000159755
0.00120023
-0.00530806
-0.0210682
-0.0410507
-0.0542579
-0.0515626
-0.0335538
-0.00871611
0.0143339
0.0328964
0.0484608
0.0636563
0.0785993
0.0906211
0.0943927
0.0854007
0.0627328
0.0309341
-0.00188981
-0.0290771
-0.0471283
-0.0554123
-0.054502
-0.0476115
-0.0382726
-0.0286056
-0.0200055
-0.0131208
-0.00821116
-0.0049173
-0.00282499
-0.0014672
-0.00084166
-0.000717209
-0.000343784
-8.66843e-05
-0.00022808
-8.8813e-05
2.03709e-05
-0.000326119
-0.000258199
-5.69436e-05
-0.000108611
0.000244775
0.000270575
-1.0929e-05
-8.38509e-05
-0.000130908
-0.000140491
-0.000114225
2.47012e-05
2.49833e-05
2.02446e-05
2.91564e-05
-0.000225827
-0.000335619
-0.000219382
-0.000503296
-0.000873887
-0.00116933
-0.00216542
-0.00386217
-0.00615665
-0.00979287
-0.0154929
-0.0231461
-0.0324752
-0.0430671
-0.0532406
-0.0600584
-0.0599463
-0.0506897
-0.031067
-0.00164851
0.0329676
0.0652869
0.0885936
0.0997661
0.0985267
0.0885012
0.0745466
0.0586907
0.0390879
0.0146851
-0.0119856
-0.0360026
-0.0513103
-0.0531612
-0.0419328
-0.0251262
-0.0116001
-0.00522343
-0.0041882
-0.0058044
-0.00842114
-0.0105257
-0.0105258
-0.00842151
-0.00580507
-0.00418896
-0.00522389
-0.0116
-0.0251255
-0.0419318
-0.0531603
-0.0513097
-0.0360022
-0.011985
0.0146858
0.0390884
0.0586908
0.0745463
0.0885008
0.0985264
0.099766
0.0885938
0.0652873
0.0329675
-0.00164932
-0.0310681
-0.0506906
-0.059947
-0.060059
-0.0532407
-0.0430668
-0.0324748
-0.0231457
-0.0154925
-0.00979247
-0.0061565
-0.00386217
-0.00216532
-0.0011692
-0.000873932
-0.000503314
-0.000219294
-0.000335692
-0.000225925
2.92714e-05
2.03731e-05
2.50155e-05
2.47273e-05
-0.000114257
-0.000140583
-0.000130984
-8.38801e-05
-3.18321e-06
-0.000139582
-0.000161494
-3.93549e-05
-7.39259e-05
-4.92878e-05
-8.88666e-05
-0.000225827
-0.000226095
-0.000190274
-0.00023689
-0.000520628
-0.00082929
-0.00133078
-0.00265159
-0.004648
-0.00739139
-0.0118806
-0.0187232
-0.0272263
-0.0373048
-0.0487161
-0.0591026
-0.0649682
-0.063315
-0.0526703
-0.0311155
0.000298996
0.0355806
0.0672722
0.090682
0.103869
0.105285
0.0976108
0.0851443
0.0687328
0.0448924
0.0143101
-0.016059
-0.0390022
-0.0512214
-0.0522875
-0.04387
-0.0315277
-0.0214425
-0.0159557
-0.0130272
-0.0110352
-0.0100421
-0.0100125
-0.0100129
-0.0100432
-0.0110365
-0.0130281
-0.0159558
-0.0214419
-0.0315266
-0.043869
-0.0522867
-0.0512209
-0.0390019
-0.0160587
0.0143107
0.0448931
0.068733
0.0851437
0.0976102
0.105285
0.103869
0.0906821
0.0672727
0.0355811
0.000298779
-0.0311164
-0.0526711
-0.0633155
-0.0649688
-0.0591031
-0.048716
-0.0373045
-0.0272261
-0.0187231
-0.0118802
-0.00739106
-0.00464795
-0.00265152
-0.00133055
-0.000829186
-0.000520646
-0.000236787
-0.000190185
-0.000226194
-0.000225925
-8.88128e-05
-4.92328e-05
-7.3884e-05
-3.93119e-05
-0.000161586
-0.000139665
-3.17438e-06
0.000151674
0.000129581
9.22574e-05
0.000101309
-0.000224942
-0.000264202
-0.000228037
-0.000335619
-0.000190274
-0.000249714
-0.000556361
-0.000786769
-0.0011457
-0.00187754
-0.00317664
-0.00527076
-0.00856253
-0.0138483
-0.0214723
-0.0307602
-0.0418731
-0.0541952
-0.0645922
-0.0695803
-0.0668533
-0.0548112
-0.0314827
0.000982924
0.0357588
0.0663337
0.0898719
0.104951
0.109563
0.105367
0.0955066
0.0790812
0.0517116
0.0159312
-0.0174478
-0.0391085
-0.0481927
-0.0484669
-0.0433714
-0.0363905
-0.0306579
-0.0266146
-0.0220824
-0.0163337
-0.0111489
-0.00837712
-0.00837782
-0.0111506
-0.0163354
-0.0220833
-0.0266142
-0.0306566
-0.0363889
-0.0433702
-0.0484661
-0.0481921
-0.0391082
-0.0174475
0.0159319
0.0517125
0.0790816
0.095506
0.105366
0.109562
0.104951
0.0898719
0.066334
0.0357594
0.000983082
-0.0314835
-0.0548123
-0.066854
-0.0695808
-0.0645928
-0.0541954
-0.0418728
-0.0307598
-0.0214721
-0.013848
-0.00856203
-0.00527048
-0.00317656
-0.00187742
-0.00114558
-0.000786839
-0.000556412
-0.000249554
-0.000190186
-0.000335692
-0.000228082
-0.000264322
-0.000225027
0.000101423
9.23481e-05
0.000129686
0.000151773
6.12405e-06
-0.000119439
-0.000157332
-0.000111655
-0.000180398
-7.30432e-05
-8.67726e-05
-0.000219382
-0.00023689
-0.000556361
-0.000845664
-0.000936001
-0.00158149
-0.00271506
-0.00415966
-0.00669604
-0.0107415
-0.0165409
-0.0245194
-0.0345493
-0.0464871
-0.0588929
-0.0686171
-0.0727011
-0.0689476
-0.0552459
-0.030692
0.0012067
0.0340878
0.0628742
0.085702
0.101515
0.109089
0.10898
0.102066
0.0856332
0.0556088
0.0162808
-0.0190308
-0.0393823
-0.0455649
-0.045056
-0.0434503
-0.0422304
-0.0411109
-0.038507
-0.032459
-0.023165
-0.0138536
-0.00822921
-0.00823006
-0.0138556
-0.0231669
-0.0324597
-0.0385061
-0.041109
-0.0422284
-0.0434489
-0.0450552
-0.0455643
-0.0393819
-0.0190306
0.0162813
0.0556095
0.0856335
0.102065
0.108979
0.109088
0.101515
0.0857019
0.0628743
0.0340883
0.0012072
-0.0306923
-0.0552469
-0.0689483
-0.0727014
-0.0686174
-0.0588931
-0.0464868
-0.0345487
-0.024519
-0.0165407
-0.0107413
-0.00669574
-0.00415957
-0.00271507
-0.00158134
-0.00093588
-0.000845769
-0.000556412
-0.000236788
-0.000219292
-8.66826e-05
-7.30004e-05
-0.000180432
-0.000111683
-0.000157377
-0.000119468
6.12863e-06
-0.000108912
-0.000199263
-0.000168277
-0.000232466
-0.00020407
-0.000116281
-0.000343795
-0.000503296
-0.000520628
-0.000786769
-0.000936001
-0.00113452
-0.00207683
-0.00336156
-0.00502129
-0.00828161
-0.0132249
-0.0196941
-0.0285422
-0.03987
-0.0525422
-0.0644908
-0.0733384
-0.0763969
-0.0708417
-0.0547283
-0.0291541
0.00143723
0.0322561
0.0593109
0.0807105
0.0963358
0.10665
0.110829
0.106386
0.0894407
0.0574633
0.0161762
-0.0202577
-0.0399064
-0.0442449
-0.0437832
-0.0462733
-0.0512943
-0.0548117
-0.0534855
-0.0461676
-0.0342095
-0.0217322
-0.0138054
-0.0138063
-0.0217342
-0.0342112
-0.046168
-0.0534844
-0.0548096
-0.0512922
-0.0462718
-0.0437823
-0.0442444
-0.0399061
-0.0202576
0.0161764
0.0574636
0.0894408
0.106385
0.110828
0.106649
0.0963357
0.0807109
0.0593114
0.0322567
0.00143806
-0.0291538
-0.0547289
-0.0708426
-0.0763974
-0.0733387
-0.0644911
-0.0525424
-0.0398697
-0.0285417
-0.0196938
-0.0132247
-0.00828127
-0.00502094
-0.00336148
-0.00207674
-0.00113425
-0.000935877
-0.000786838
-0.000520649
-0.000503313
-0.000343783
-0.000116139
-0.000204011
-0.000232524
-0.000168295
-0.000199334
-0.000108987
4.03684e-06
2.71161e-05
4.55866e-05
-0.0001577
-0.000389822
-0.000454803
-0.000717106
-0.000873887
-0.00082929
-0.0011457
-0.00158149
-0.00207683
-0.00315586
-0.00456431
-0.00653649
-0.0103023
-0.0157847
-0.0229265
-0.0328376
-0.0453161
-0.0584365
-0.0701304
-0.0786634
-0.0808986
-0.0733946
-0.0553859
-0.0298829
-0.0012234
0.0274841
0.0526083
0.0720277
0.0873135
0.100695
0.109379
0.107229
0.0900676
0.0577436
0.0168565
-0.0190957
-0.0379967
-0.0413738
-0.0418693
-0.0488991
-0.0600457
-0.0675627
-0.066953
-0.0586402
-0.0453179
-0.031286
-0.0221046
-0.0221053
-0.0312874
-0.0453189
-0.05864
-0.0669517
-0.0675607
-0.0600436
-0.0488974
-0.0418681
-0.0413731
-0.0379964
-0.0190956
0.0168564
0.0577435
0.0900674
0.107228
0.109378
0.100694
0.087313
0.0720283
0.0526091
0.0274847
-0.00122286
-0.0298824
-0.0553861
-0.0733956
-0.0808995
-0.0786637
-0.0701305
-0.0584367
-0.045316
-0.032837
-0.0229258
-0.0157844
-0.0103019
-0.00653605
-0.00456411
-0.00315588
-0.00207675
-0.00158134
-0.00114558
-0.000829188
-0.000873933
-0.000717212
-0.000454787
-0.000389809
-0.000157663
4.5732e-05
2.71858e-05
4.0221e-06
4.26306e-05
-0.000192485
-0.00036791
-0.000377375
-0.000657865
-0.000723102
-0.000841732
-0.00116933
-0.00133078
-0.00187754
-0.00271506
-0.00336156
-0.00456431
-0.00659123
-0.00930253
-0.0136043
-0.0197842
-0.0278818
-0.0386321
-0.0515894
-0.0647438
-0.0761586
-0.0840449
-0.0847524
-0.0751989
-0.0562063
-0.0316902
-0.00528498
0.0206942
0.0427228
0.0592856
0.0739105
0.0897817
0.101884
0.101234
0.0840492
0.052769
0.0143984
-0.0192487
-0.0369773
-0.0402974
-0.0428427
-0.0546082
-0.0710539
-0.0813482
-0.0806988
-0.0717475
-0.05854
-0.0448433
-0.0356939
-0.0356942
-0.0448438
-0.05854
-0.0717466
-0.0806974
-0.0813465
-0.071052
-0.0546063
-0.0428411
-0.0402965
-0.0369771
-0.019249
0.0143979
0.0527682
0.0840484
0.101233
0.101883
0.0897804
0.0739096
0.059286
0.042724
0.020695
-0.00528464
-0.0316897
-0.056206
-0.0751994
-0.0847533
-0.0840453
-0.0761584
-0.0647436
-0.0515892
-0.0386316
-0.0278812
-0.0197837
-0.013604
-0.00930226
-0.00659096
-0.00456411
-0.00336149
-0.00271507
-0.00187743
-0.00133055
-0.0011692
-0.000841661
-0.000723078
-0.00065788
-0.000377349
-0.000367911
-0.000192457
4.26837e-05
1.45592e-05
-0.000455076
-0.000761061
-0.00066086
-0.00111425
-0.00134252
-0.00146743
-0.00216542
-0.00265159
-0.00317664
-0.00415966
-0.00502129
-0.00653649
-0.00930253
-0.0127476
-0.0177267
-0.0251139
-0.0346484
-0.0463877
-0.0600312
-0.0736527
-0.0848888
-0.091486
-0.0899305
-0.0783761
-0.0586585
-0.0346766
-0.00988843
0.0131495
0.0315422
0.0454977
0.0597097
0.077077
0.0909048
0.0907978
0.0736401
0.0441118
0.00965026
-0.0202143
-0.0365652
-0.04129
-0.0475027
-0.0642545
-0.0849855
-0.0970064
-0.0961125
-0.0873563
-0.0759228
-0.0645037
-0.0567285
-0.0567284
-0.0645031
-0.0759216
-0.0873546
-0.0961109
-0.0970052
-0.0849843
-0.0642529
-0.0475009
-0.0412889
-0.0365652
-0.0202151
0.00964912
0.0441103
0.0736387
0.090797
0.0909044
0.0770762
0.0597089
0.045498
0.0315438
0.013151
-0.00988776
-0.0346762
-0.0586581
-0.0783761
-0.0899313
-0.0914867
-0.084889
-0.0736526
-0.060031
-0.0463874
-0.034648
-0.0251134
-0.0177262
-0.0127472
-0.00930225
-0.00653605
-0.00502094
-0.00415956
-0.00317657
-0.00265153
-0.00216532
-0.0014672
-0.00134243
-0.00111422
-0.000660761
-0.000761153
-0.00045513
1.46321e-05
-3.40803e-05
-0.000525823
-0.00094203
-0.00111845
-0.00186903
-0.00242552
-0.0028252
-0.00386217
-0.004648
-0.00527076
-0.00669604
-0.00828161
-0.0103023
-0.0136043
-0.0177267
-0.0234183
-0.0318503
-0.042607
-0.0552428
-0.0697032
-0.0839906
-0.0950348
-0.100297
-0.096974
-0.0844205
-0.0645383
-0.0410367
-0.0180379
0.00143844
0.0162075
0.0286234
0.0430502
0.0611754
0.0757247
0.076259
0.0600407
0.0335161
0.00486312
-0.0190762
-0.0331889
-0.040198
-0.0509572
-0.0720475
-0.0954527
-0.108231
-0.107317
-0.0997497
-0.0914598
-0.0838603
-0.0785789
-0.0785783
-0.0838587
-0.0914573
-0.099747
-0.107315
-0.10823
-0.0954519
-0.0720462
-0.0509554
-0.0401968
-0.033189
-0.0190774
0.00486145
0.0335142
0.060039
0.0762582
0.0757245
0.0611752
0.0430496
0.0286233
0.0162087
0.00144004
-0.018037
-0.0410365
-0.0645383
-0.0844206
-0.0969745
-0.100297
-0.0950353
-0.0839906
-0.0697028
-0.0552423
-0.0426065
-0.0318498
-0.0234176
-0.0177262
-0.013604
-0.0103019
-0.00828128
-0.00669574
-0.00527049
-0.00464795
-0.00386217
-0.002825
-0.00242541
-0.00186896
-0.00111823
-0.000941988
-0.000525813
-3.39972e-05
-0.00024327
-0.000929615
-0.00165595
-0.00227593
-0.00318949
-0.00412399
-0.00491751
-0.00615665
-0.00739139
-0.00856253
-0.0107415
-0.0132249
-0.0157847
-0.0197842
-0.0251139
-0.0318503
-0.0412736
-0.0532253
-0.0666925
-0.0816212
-0.0959989
-0.106269
-0.109851
-0.104852
-0.0914437
-0.0712674
-0.0483327
-0.0277392
-0.0123835
-0.000957054
0.0104948
0.0248213
0.0422938
0.0562396
0.0570879
0.0421415
0.0193574
-0.00213078
-0.0185037
-0.0297427
-0.0395017
-0.0548636
-0.0789007
-0.103242
-0.116227
-0.115973
-0.110541
-0.106234
-0.103374
-0.101346
-0.101345
-0.103371
-0.10623
-0.110538
-0.115971
-0.116225
-0.103242
-0.0788999
-0.0548623
-0.0395007
-0.0297429
-0.0185053
-0.00213313
0.0193549
0.0421396
0.0570869
0.0562394
0.0422938
0.024821
0.0104945
-0.000956638
-0.0123822
-0.027738
-0.0483323
-0.0712677
-0.0914439
-0.104852
-0.109852
-0.10627
-0.095999
-0.0816209
-0.066692
-0.0532249
-0.0412731
-0.0318498
-0.0251134
-0.0197837
-0.0157844
-0.0132247
-0.0107413
-0.00856203
-0.00739107
-0.0061565
-0.0049173
-0.00412387
-0.0031894
-0.00227575
-0.00165584
-0.000929528
-0.000243182
-0.000569407
-0.00168544
-0.00294858
-0.00414733
-0.00535568
-0.00689838
-0.00821148
-0.00979287
-0.0118806
-0.0138483
-0.0165409
-0.0196941
-0.0229265
-0.0278818
-0.0346484
-0.042607
-0.0532253
-0.0666374
-0.0810928
-0.0963758
-0.110533
-0.119668
-0.121174
-0.114083
-0.0991446
-0.0779925
-0.0554532
-0.0371868
-0.0252665
-0.0160416
-0.00495307
0.00896179
0.0248164
0.037174
0.0378297
0.0242043
0.00559153
-0.00809641
-0.0162835
-0.0244793
-0.0369917
-0.0562888
-0.0817293
-0.105845
-0.119289
-0.120892
-0.118524
-0.118619
-0.120903
-0.122565
-0.122564
-0.1209
-0.118615
-0.11852
-0.120889
-0.119287
-0.105845
-0.0817291
-0.0562884
-0.0369916
-0.02448
-0.0162855
-0.00809927
0.00558861
0.0242021
0.0378286
0.0371738
0.0248167
0.008962
-0.00495315
-0.0160415
-0.0252657
-0.0371854
-0.0554523
-0.0779926
-0.0991451
-0.114083
-0.121174
-0.119669
-0.110533
-0.0963758
-0.0810926
-0.0666371
-0.0532249
-0.0426065
-0.034648
-0.0278812
-0.0229258
-0.0196938
-0.0165407
-0.013848
-0.0118802
-0.00979248
-0.00821117
-0.0068982
-0.00535552
-0.00414719
-0.00294852
-0.00168537
-0.00056935
-0.00100916
-0.00274054
-0.00469331
-0.00667394
-0.00843637
-0.010887
-0.0131212
-0.0154929
-0.0187232
-0.0214723
-0.0245194
-0.0285422
-0.0328376
-0.0386321
-0.0463877
-0.0552428
-0.0666925
-0.0810928
-0.096268
-0.111737
-0.125422
-0.133311
-0.132838
-0.123773
-0.107175
-0.0850778
-0.0631989
-0.0468767
-0.0370347
-0.0285226
-0.0170103
-0.00305448
0.011464
0.0222814
0.0229229
0.0113809
-0.00212725
-0.00757311
-0.00740927
-0.0120805
-0.0262132
-0.0478391
-0.0731215
-0.0963975
-0.110972
-0.11566
-0.117048
-0.121583
-0.128971
-0.134441
-0.134439
-0.128967
-0.121578
-0.117044
-0.115657
-0.11097
-0.0963965
-0.0731213
-0.0478397
-0.0262141
-0.0120819
-0.00741132
-0.00757589
-0.00213007
0.011379
0.0229221
0.0222813
0.0114643
-0.00305396
-0.0170101
-0.0285228
-0.0370346
-0.0468759
-0.063198
-0.085078
-0.107176
-0.123774
-0.132839
-0.133312
-0.125423
-0.111737
-0.0962678
-0.0810925
-0.066692
-0.0552423
-0.0463874
-0.0386316
-0.032837
-0.0285417
-0.0245191
-0.0214721
-0.0187231
-0.0154926
-0.0131208
-0.0108866
-0.00843602
-0.00667373
-0.0046932
-0.00274046
-0.00100915
-0.00158904
-0.00419962
-0.00715314
-0.0103716
-0.0130819
-0.0166458
-0.0200058
-0.0231461
-0.0272263
-0.0307602
-0.0345493
-0.03987
-0.0453161
-0.0515894
-0.0600312
-0.0697032
-0.0816212
-0.0963758
-0.111737
-0.126538
-0.138555
-0.144306
-0.141292
-0.129624
-0.11073
-0.0876777
-0.0666884
-0.0519025
-0.0431996
-0.0349305
-0.0232744
-0.00950845
0.00343258
0.012171
0.0123603
0.00317614
-0.00501047
-0.00278784
0.00516724
0.00474495
-0.00905894
-0.0309948
-0.0548132
-0.0769144
-0.0930712
-0.101556
-0.106949
-0.115589
-0.127602
-0.136634
-0.136632
-0.127598
-0.115584
-0.106944
-0.101553
-0.0930687
-0.0769129
-0.054813
-0.0309961
-0.0090611
0.00474257
0.0051648
-0.00279049
-0.00501297
0.00317447
0.0123596
0.0121708
0.00343267
-0.00950799
-0.0232741
-0.0349308
-0.0432001
-0.0519023
-0.0666877
-0.0876776
-0.110731
-0.129625
-0.141293
-0.144307
-0.138556
-0.126538
-0.111737
-0.0963757
-0.0816209
-0.0697028
-0.060031
-0.0515892
-0.045316
-0.0398697
-0.0345487
-0.0307598
-0.0272261
-0.0231457
-0.0200055
-0.0166455
-0.0130815
-0.0103714
-0.0071529
-0.00419943
-0.00158903
-0.00240449
-0.0063751
-0.0106944
-0.0154553
-0.0193659
-0.0240777
-0.0286058
-0.0324752
-0.0373048
-0.0418731
-0.0464871
-0.0525422
-0.0584365
-0.0647438
-0.0736527
-0.0839906
-0.0959989
-0.110533
-0.125422
-0.138555
-0.147955
-0.151009
-0.144791
-0.129551
-0.107672
-0.083615
-0.0632189
-0.0489613
-0.0402394
-0.0317518
-0.020024
-0.00635239
0.00505009
0.0113611
0.0106333
0.0036775
0.000203054
0.00865151
0.0232685
0.0276347
0.0157998
-0.00518554
-0.0271873
-0.0482546
-0.0663388
-0.0791189
-0.0888103
-0.101313
-0.117306
-0.129386
-0.129384
-0.117303
-0.101308
-0.0888062
-0.0791155
-0.0663361
-0.0482529
-0.0271871
-0.0051872
0.0157968
0.0276314
0.0232655
0.00864901
0.000201209
0.00367653
0.010633
0.0113609
0.00505006
-0.00635208
-0.0200235
-0.0317517
-0.0402399
-0.0489616
-0.0632186
-0.0836146
-0.107673
-0.129552
-0.144792
-0.15101
-0.147956
-0.138556
-0.125423
-0.110533
-0.095999
-0.0839906
-0.0736526
-0.0647436
-0.0584366
-0.0525424
-0.0464868
-0.0418728
-0.0373045
-0.0324748
-0.0286056
-0.0240775
-0.0193656
-0.0154552
-0.0106942
-0.00637494
-0.00240453
-0.00329962
-0.00894901
-0.0148998
-0.0213504
-0.0266636
-0.0325262
-0.0382727
-0.0430671
-0.0487161
-0.0541952
-0.0588929
-0.0644908
-0.0701304
-0.0761586
-0.0848888
-0.0950348
-0.106269
-0.119668
-0.133311
-0.144306
-0.151009
-0.151181
-0.141186
-0.121941
-0.0972621
-0.0724823
-0.0521036
-0.037326
-0.0277897
-0.0188484
-0.00695585
0.00692153
0.0170262
0.0207583
0.0185786
0.0132537
0.0134198
0.0265582
0.0467174
0.0560917
0.0470951
0.0274782
0.00717704
-0.0128415
-0.0327091
-0.0499396
-0.0642309
-0.0803808
-0.099488
-0.113798
-0.113797
-0.0994853
-0.0803771
-0.0642271
-0.0499362
-0.0327064
-0.0128398
0.00717717
0.0274766
0.0470919
0.056088
0.0467141
0.0265558
0.0134187
0.0132538
0.0185793
0.0207588
0.0170264
0.00692178
-0.00695534
-0.0188479
-0.0277897
-0.0373264
-0.0521039
-0.0724822
-0.0972622
-0.121943
-0.141187
-0.151183
-0.15101
-0.144307
-0.133312
-0.119669
-0.10627
-0.0950352
-0.084889
-0.0761584
-0.0701304
-0.0644911
-0.0588931
-0.0541954
-0.048716
-0.0430668
-0.0382726
-0.032526
-0.0266634
-0.0213504
-0.0148996
-0.00894887
-0.00329971
-0.00424275
-0.0117969
-0.0193937
-0.0272865
-0.0338988
-0.0407451
-0.0476113
-0.0532406
-0.0591026
-0.0645922
-0.0686171
-0.0733384
-0.0786634
-0.0840449
-0.091486
-0.100297
-0.109851
-0.121174
-0.132838
-0.141292
-0.144791
-0.141186
-0.12695
-0.104306
-0.0779582
-0.0530916
-0.0327543
-0.017878
-0.00842844
4.10161e-05
0.0115315
0.025268
0.0337543
0.0343303
0.029739
0.0251259
0.0280963
0.0450724
0.0699729
0.084131
0.0781313
0.0600767
0.0417723
0.0235964
0.00285032
-0.0184469
-0.0373419
-0.0566576
-0.0776462
-0.0930543
-0.0930537
-0.0776445
-0.0566549
-0.0373386
-0.0184437
0.00285273
0.0235975
0.041772
0.0600751
0.0781286
0.0841277
0.0699696
0.0450699
0.0280955
0.0251268
0.0297406
0.0343316
0.0337548
0.025268
0.0115315
4.15579e-05
-0.00842775
-0.0178778
-0.0327548
-0.0530919
-0.0779581
-0.104306
-0.126952
-0.141187
-0.144792
-0.141293
-0.132839
-0.121174
-0.109852
-0.100297
-0.0914867
-0.0840452
-0.0786636
-0.0733386
-0.0686174
-0.0645928
-0.0591031
-0.0532407
-0.0476115
-0.0407451
-0.0338987
-0.0272866
-0.0193937
-0.0117969
-0.00424289
-0.0049299
-0.0140391
-0.0229176
-0.0319194
-0.0397595
-0.0472381
-0.0545013
-0.0600584
-0.0649682
-0.0695803
-0.0727011
-0.0763969
-0.0808986
-0.0847524
-0.0899305
-0.096974
-0.104852
-0.114083
-0.123773
-0.129624
-0.129551
-0.121941
-0.104306
-0.0796338
-0.0523677
-0.02736
-0.00718838
0.00678598
0.0151233
0.0226542
0.0335928
0.0466913
0.052749
0.0490019
0.0405386
0.0354554
0.040481
0.0603482
0.0882428
0.105334
0.101126
0.084309
0.0682865
0.0527569
0.0319808
0.00706044
-0.0162707
-0.0380745
-0.0595555
-0.0748277
-0.0748276
-0.0595551
-0.0380732
-0.0162684
0.0070631
0.0319827
0.0527572
0.0682853
0.0843071
0.101124
0.105332
0.0882403
0.0603458
0.0404799
0.0354563
0.0405407
0.0490042
0.0527504
0.0466916
0.0335924
0.0226544
0.0151244
0.00678715
-0.00718817
-0.0273604
-0.0523678
-0.0796336
-0.104306
-0.121943
-0.129552
-0.129625
-0.123774
-0.114083
-0.104852
-0.0969745
-0.0899313
-0.0847533
-0.0808995
-0.0763973
-0.0727013
-0.0695808
-0.0649688
-0.060059
-0.0545019
-0.0472385
-0.0397597
-0.0319197
-0.0229178
-0.0140393
-0.00493006
-0.00502628
-0.0147683
-0.0242285
-0.0336424
-0.0419665
-0.048995
-0.0554113
-0.0599463
-0.063315
-0.0668533
-0.0689476
-0.0708417
-0.0733946
-0.0751989
-0.0783761
-0.0844205
-0.0914437
-0.0991446
-0.107175
-0.11073
-0.107672
-0.0972621
-0.0779582
-0.0523677
-0.0244474
0.000323994
0.0190424
0.0304607
0.0368973
0.0435103
0.0538213
0.0653928
0.0678609
0.0587293
0.0456924
0.0400601
0.0473927
0.0695436
0.0983297
0.116035
0.112543
0.0973044
0.0844019
0.0724823
0.0526805
0.0251292
-0.00171333
-0.0247865
-0.0452094
-0.0591381
-0.0591385
-0.0452102
-0.0247868
-0.00171257
0.0251307
0.0526816
0.0724818
0.0843998
0.0973019
0.112541
0.116034
0.0983286
0.069542
0.0473913
0.0400603
0.0456943
0.058732
0.0678633
0.0653938
0.0538209
0.0435099
0.036898
0.0304625
0.0190439
0.00032441
-0.0244476
-0.0523678
-0.0779581
-0.0972622
-0.107673
-0.110731
-0.107176
-0.0991451
-0.0914439
-0.0844206
-0.0783761
-0.0751994
-0.0733956
-0.0708425
-0.0689483
-0.066854
-0.0633155
-0.059947
-0.0554123
-0.0489958
-0.0419673
-0.0336431
-0.0242288
-0.0147685
-0.00502642
-0.00456491
-0.0137082
-0.0221126
-0.0299572
-0.0369559
-0.0422166
-0.0471274
-0.0506897
-0.0526703
-0.0548112
-0.0552459
-0.0547283
-0.0553859
-0.0562063
-0.0586585
-0.0645383
-0.0712674
-0.0779925
-0.0850778
-0.0876777
-0.083615
-0.0724823
-0.0530916
-0.02736
0.000323994
0.0232078
0.0385752
0.0464956
0.0514363
0.0578962
0.0676733
0.0768979
0.0751197
0.060758
0.0441644
0.0393268
0.0498165
0.0735112
0.100915
0.117191
0.114055
0.1013
0.0923344
0.0846073
0.0667593
0.0381963
0.00961146
-0.0130747
-0.0309793
-0.0425981
-0.0425989
-0.0309811
-0.0130767
0.0096102
0.0381959
0.0667592
0.0846062
0.092332
0.101297
0.114053
0.117191
0.100915
0.0735111
0.0498155
0.0393261
0.0441651
0.0607603
0.0751227
0.0768999
0.0676736
0.0578954
0.0514359
0.0464967
0.0385771
0.0232093
0.000324399
-0.0273604
-0.0530919
-0.0724822
-0.0836147
-0.0876776
-0.085078
-0.0779926
-0.0712676
-0.0645383
-0.058658
-0.0562059
-0.055386
-0.0547289
-0.0552468
-0.0548122
-0.0526711
-0.0506905
-0.0471283
-0.0422175
-0.0369569
-0.0299582
-0.0221133
-0.0137087
-0.00456512
-0.00288875
-0.00912742
-0.0144728
-0.0191013
-0.0235964
-0.0263333
-0.0290762
-0.031067
-0.0311155
-0.0314827
-0.030692
-0.0291541
-0.0298829
-0.0316902
-0.0346766
-0.0410367
-0.0483327
-0.0554532
-0.0631989
-0.0666884
-0.0632189
-0.0521036
-0.0327543
-0.00718838
0.0190424
0.0385752
0.0499884
0.0551088
0.0596857
0.0664134
0.0750456
0.0807736
0.0744481
0.0559156
0.0376373
0.0349447
0.0486463
0.0724212
0.0963284
0.109964
0.107553
0.0982126
0.0934577
0.0900144
0.0752552
0.048068
0.0203057
-6.53452e-05
-0.0142397
-0.0229088
-0.0229097
-0.0142423
-6.8863e-05
0.0203022
0.0480652
0.0752533
0.0900126
0.0934553
0.0982099