/*--------------------------------*- C++ -*----------------------------------*\
  =========                 |
  \\      /  F ield         | OpenFOAM: The Open Source CFD Toolbox
   \\    /   O peration     | Website:  https://openfoam.org
    \\  /    A nd           | Version:  10
     \\/     M anipulation  |
\*---------------------------------------------------------------------------*/
FoamFile
{
    format      ascii;
    class       volScalarField;
    location    "68";
    object      h;
}
// * * * * * * * * * * * * * * * * * * * * * * * * * * * * * * * * * * * * * //

dimensions      [0 1 0 0 0 0 0];

internalField   nonuniform List<scalar> 
10000
(
-0.000173909
-0.00035104
-0.000170611
0.000269854
0.000782046
0.00119743
0.00137192
0.00130754
0.00121284
0.00131177
0.0015454
0.00167338
0.00155328
0.0011691
0.000513384
-0.000327794
-0.00107295
-0.00150815
-0.00172133
-0.00192375
-0.00214421
-0.00228445
-0.00233985
-0.00237379
-0.00224958
-0.00164828
-0.000416761
0.00134346
0.00351132
0.00596107
0.00834422
0.01015
0.011042
0.0111135
0.0107531
0.0102108
0.00932319
0.00775869
0.0053805
0.00246278
-0.000283251
-0.00209619
-0.00269101
-0.00240021
-0.00191861
-0.00171628
-0.00166984
-0.00141597
-0.000873975
-0.000384084
-0.000384086
-0.000873982
-0.001416
-0.00166992
-0.00171645
-0.00191892
-0.00240064
-0.00269148
-0.00209659
-0.000283509
0.00246271
0.00538062
0.00775901
0.00932373
0.0102115
0.010754
0.0111145
0.0110428
0.0101506
0.00834435
0.0059608
0.00351074
0.00134269
-0.000417647
-0.00164921
-0.00225045
-0.00237446
-0.0023402
-0.0022844
-0.00214378
-0.00192314
-0.00172078
-0.00150787
-0.00107292
-0.00032788
0.000513358
0.0011692
0.00155343
0.00167343
0.00154523
0.00131143
0.00121255
0.00130755
0.00137227
0.00119792
0.000782332
0.000269712
-0.000171136
-0.000351628
-0.000174166
-0.00035104
-0.000641387
-8.42486e-05
0.00106758
0.00240201
0.00356173
0.0041621
0.00412957
0.00394895
0.00419803
0.00472829
0.00493035
0.00447472
0.00333706
0.00145039
-0.00100371
-0.00324605
-0.00463282
-0.00535028
-0.0059412
-0.00646434
-0.00667298
-0.00663017
-0.00657904
-0.00612546
-0.00430021
-0.000613916
0.00464437
0.0110844
0.0182873
0.0252124
0.0303906
0.0328952
0.0330547
0.0320253
0.0305126
0.0279903
0.0234429
0.0164527
0.0078405
-0.000279648
-0.0056551
-0.00744646
-0.00664225
-0.00529124
-0.00476885
-0.0047016
-0.00400882
-0.00244746
-0.00102195
-0.00102198
-0.00244755
-0.00400898
-0.00470189
-0.00476939
-0.00529212
-0.00664343
-0.00744779
-0.00565629
-0.000280479
0.00784018
0.016453
0.0234438
0.027992
0.030515
0.032028
0.0330575
0.0328975
0.0303921
0.0252128
0.0182866
0.0110828
0.00464218
-0.000616539
-0.00430301
-0.00612807
-0.00658103
-0.00663118
-0.00667283
-0.00646319
-0.00593954
-0.0053488
-0.00463199
-0.00324589
-0.00100382
0.0014504
0.00333731
0.00447502
0.00493034
0.00472775
0.00419714
0.00394829
0.00412968
0.00416302
0.00356292
0.00240267
0.00106721
-8.54932e-05
-0.000642754
-0.00035163
-0.000170611
-8.42486e-05
0.000833898
0.00226533
0.00391756
0.00559149
0.00680126
0.00724253
0.00734664
0.00778944
0.00835811
0.00831113
0.00735504
0.00552015
0.00258823
-0.00134029
-0.00515341
-0.00777777
-0.00929808
-0.010342
-0.0109053
-0.0106864
-0.00998865
-0.00937434
-0.0082802
-0.00512492
0.000950623
0.009523
0.0199184
0.0313756
0.0421987
0.0501061
0.0537547
0.0538088
0.0521811
0.0499624
0.0462101
0.0391738
0.0280947
0.0142765
0.00114147
-0.00765335
-0.0107228
-0.00964368
-0.00769513
-0.00706393
-0.00713951
-0.00617258
-0.00376316
-0.00152641
-0.0015265
-0.00376341
-0.00617297
-0.00714008
-0.00706483
-0.00769648
-0.00964547
-0.0107248
-0.00765524
0.00114007
0.0142759
0.0280952
0.0391755
0.046213
0.0499662
0.0521855
0.0538131
0.0537583
0.0501085
0.0421996
0.0313748
0.0199163
0.00951969
0.000946435
-0.00512948
-0.00828441
-0.00937748
-0.00999023
-0.0106863
-0.0109038
-0.0103398
-0.00929602
-0.00777646
-0.00515285
-0.00134007
0.00258848
0.00552045
0.00735518
0.00831084
0.0083573
0.00778843
0.00734606
0.00724285
0.00680234
0.00559266
0.0039181
0.0022649
0.000832712
-8.54947e-05
-0.000171138
0.000269854
0.00106758
0.00226533
0.00355191
0.00502597
0.00695232
0.00893484
0.0103736
0.0113469
0.0123086
0.0129141
0.0124592
0.0108881
0.00837641
0.00452011
-0.000806372
-0.00634858
-0.0106324
-0.0134168
-0.0151054
-0.0154843
-0.0142579
-0.0121319
-0.0101647
-0.00782842
-0.00311663
0.00516266
0.0165555
0.030199
0.0450349
0.0588067
0.0685749
0.0727306
0.0723544
0.07012
0.067487
0.0631065
0.0544386
0.0402358
0.0220967
0.00454307
-0.00749931
-0.0120604
-0.0111349
-0.00900571
-0.00853855
-0.00894673
-0.00792375
-0.00492719
-0.00207971
-0.00207981
-0.0049275
-0.00792428
-0.00894758
-0.00853986
-0.00900759
-0.0111373
-0.0120629
-0.00750168
0.00454135
0.022096
0.0402364
0.0544407
0.0631102
0.0674919
0.0701256
0.07236
0.0727353
0.0685782
0.0588081
0.0450342
0.0301964
0.0165513
0.00515727
-0.00312253
-0.00783385
-0.0101687
-0.0121341
-0.0142582
-0.0154831
-0.0151032
-0.0134145
-0.0106305
-0.00634729
-0.000805456
0.00452073
0.00837662
0.0108878
0.0124586
0.0129133
0.012308
0.0113467
0.010374
0.00893548
0.00695273
0.00502596
0.00355159
0.0022649
0.00106721
0.00026971
0.000782046
0.00240201
0.00391756
0.00502597
0.00620431
0.00822059
0.0109222
0.0135418
0.0157489
0.0175688
0.018388
0.017531
0.015228
0.0118791
0.00699118
0.0002251
-0.00715128
-0.0133381
-0.0176352
-0.0199879
-0.0198528
-0.0169659
-0.0125318
-0.00825498
-0.0039064
0.00265487
0.0128611
0.0263625
0.0422737
0.0593478
0.0749041
0.0855165
0.0894517
0.0882655
0.0853828
0.082628
0.0782874
0.0689937
0.0528452
0.0314994
0.0103032
-0.00473761
-0.0110365
-0.0107966
-0.00901675
-0.00907171
-0.0100723
-0.00929438
-0.00606639
-0.00287755
-0.00287763
-0.00606666
-0.00929498
-0.0100735
-0.00907348
-0.00901919
-0.0107995
-0.0110395
-0.00474016
0.0103015
0.0314989
0.052846
0.0689961
0.0782914
0.0826334
0.0853892
0.0882719
0.0894574
0.0855206
0.074906
0.0593472
0.0422709
0.0263578
0.0128551
0.00264834
-0.00391245
-0.00825968
-0.0125347
-0.0169671
-0.0198524
-0.0199863
-0.0176329
-0.0133356
-0.00714907
0.000226834
0.00699214
0.0118791
0.0152273
0.0175303
0.0183877
0.0175689
0.0157492
0.013542
0.010922
0.00821996
0.00620376
0.00502596
0.0039181
0.00240267
0.000782332
0.00119743
0.00356173
0.00559149
0.00695232
0.00822059
0.0103962
0.013586
0.0171032
0.0204299
0.0231987
0.0244439
0.0233547
0.020269
0.0157789
0.0094835
0.00103758
-0.00825668
-0.0163377
-0.0220271
-0.0247389
-0.0235955
-0.0184048
-0.0108926
-0.0034666
0.00359534
0.0122841
0.0241573
0.0390642
0.0562163
0.0742636
0.0902735
0.100586
0.10355
0.101251
0.0977859
0.095261
0.0916103
0.0826403
0.0657039
0.0423386
0.0184344
0.000821629
-0.00734446
-0.00830294
-0.00746409
-0.00849796
-0.010453
-0.0103147
-0.00728929
-0.00407539
-0.00407546
-0.00728961
-0.0103155
-0.0104544
-0.00850017
-0.00746693
-0.00830611
-0.00734751
0.000819172
0.0184329
0.0423383
0.0657049
0.0826429
0.0916145
0.0952667
0.0977924
0.101258
0.103557
0.100591
0.090276
0.0742634
0.0562138
0.0390597
0.0241514
0.0122777
0.00358922
-0.00347169
-0.0108964
-0.0184073
-0.0235965
-0.0247383
-0.0220251
-0.0163349
-0.00825375
0.00103995
0.00948474
0.0157789
0.0202684
0.0233543
0.0244441
0.0231993
0.0204302
0.0171028
0.013585
0.0103949
0.00821996
0.00695273
0.00559266
0.00356292
0.00119792
0.00137192
0.0041621
0.00680126
0.00893484
0.0109222
0.013586
0.0171418
0.0211569
0.0252368
0.0288627
0.03079
0.0298862
0.0262343
0.0203939
0.0121907
0.00159849
-0.00984146
-0.0197635
-0.0265348
-0.029121
-0.0264558
-0.0185043
-0.00746142
0.00363533
0.0138997
0.0249264
0.0382409
0.0538974
0.0712474
0.0889135
0.103942
0.112772
0.114073
0.110474
0.106588
0.104659
0.102279
0.0944873
0.0778769
0.0537253
0.0281716
0.00856122
-0.0014867
-0.00409532
-0.00477138
-0.0072506
-0.0105472
-0.0114827
-0.00913955
-0.00624683
-0.00624693
-0.00913998
-0.0114838
-0.010549
-0.00725318
-0.00477442
-0.00409843
-0.00148949
0.00855909
0.0281703
0.0537252
0.0778781
0.0944899
0.102283
0.104664
0.106594
0.110481
0.114079
0.112777
0.103945
0.0889141
0.0712456
0.0538937
0.0382358
0.0249206
0.0138938
0.00362998
-0.00746603
-0.018508
-0.0264583
-0.0291217
-0.0265336
-0.0197609
-0.0098384
0.00160117
0.0121924
0.0203945
0.0262344
0.0298865
0.0307906
0.0288632
0.0252367
0.021156
0.0171404
0.013585
0.010922
0.00893547
0.00680234
0.00416302
0.00137227
0.00130754
0.00412957
0.00724253
0.0103736
0.0135418
0.0171032
0.0211569
0.025492
0.0299859
0.0342309
0.0369363
0.0366101
0.0327393
0.0255268
0.0150351
0.00184216
-0.0119912
-0.0236527
-0.0310625
-0.0329097
-0.0282005
-0.0171906
-0.0024432
0.012545
0.02626
0.0396823
0.0541162
0.069782
0.0862139
0.102128
0.11481
0.121112
0.120192
0.11516
0.110952
0.109847
0.109155
0.103263
0.0880165
0.064281
0.0381347
0.0171226
0.00522122
0.000582701
-0.00209082
-0.00640047
-0.0113765
-0.0138135
-0.012656
-0.0104523
-0.0104524
-0.0126565
-0.0138147
-0.0113786
-0.00640335
-0.00209397
0.000579783
0.00521888
0.017121
0.0381339
0.0642812
0.0880177
0.103266
0.109159
0.109852
0.110958
0.115166
0.120198
0.121117
0.114813
0.102129
0.0862132
0.0697796
0.0541124
0.0396775
0.0262546
0.0125396
-0.00244845
-0.0171954
-0.0282042
-0.0329116
-0.0310625
-0.0236512
-0.0119888
0.00184477
0.0150374
0.0255286
0.0327407
0.0366112
0.0369369
0.0342309
0.0299852
0.0254909
0.021156
0.0171028
0.013542
0.010374
0.00724285
0.00412968
0.00130754
0.00121284
0.00394895
0.00734664
0.0113469
0.0157489
0.0204299
0.0252368
0.0299859
0.0346907
0.0391288
0.0422219
0.042306
0.038208
0.0295949
0.0167091
0.000824773
-0.0153464
-0.0284439
-0.0359231
-0.0363469
-0.0290569
-0.0147527
0.0037204
0.0225827
0.0397156
0.0553393
0.0704074
0.0852993
0.0997973
0.112833
0.122143
0.125209
0.12175
0.115235
0.110743
0.110513
0.111689
0.108163
0.0950982
0.0728304
0.0470873
0.0253016
0.0116744
0.00475961
-0.000266502
-0.00670243
-0.0136429
-0.017979
-0.0184925
-0.0173322
-0.0173322
-0.0184929
-0.0179803
-0.0136452
-0.00670552
-0.000269654
0.00475701
0.0116727
0.0253007
0.0470872
0.0728309
0.0950995
0.108165
0.111692
0.110517
0.110748
0.11524
0.121755
0.125214
0.122146
0.112835
0.099798
0.0852985
0.0704053
0.0553359
0.039711
0.0225774
0.00371481
-0.0147581
-0.0290614
-0.03635
-0.0359247
-0.028444
-0.0153452
0.000827005
0.0167121
0.029598
0.0382107
0.0423078
0.0422223
0.0391282
0.0346896
0.0299852
0.0252367
0.0204302
0.0157492
0.0113467
0.00734606
0.00394829
0.00121255
0.00131177
0.00419803
0.00778944
0.0123086
0.0175688
0.0231987
0.0288627
0.0342309
0.0391288
0.0433192
0.0460306
0.0457273
0.0408593
0.0306993
0.0156544
-0.00245768
-0.0204535
-0.0345017
-0.041566
-0.0401019
-0.0299148
-0.0122613
0.00975835
0.0321892
0.0523604
0.0697199
0.0848689
0.09837
0.11026
0.119713
0.125027
0.124476
0.118398
0.110505
0.105813
0.106432
0.109422
0.108394
0.0980009
0.0780367
0.0536531
0.0318476
0.0168336
0.0076033
1.17806e-05
-0.00877502
-0.0179132
-0.0244689
-0.0270394
-0.0272013
-0.0272014
-0.0270399
-0.0244703
-0.0179157
-0.00877817
8.8528e-06
0.00760125
0.0168326
0.0318474
0.0536535
0.0780375
0.0980022
0.108396
0.109425
0.106436
0.105817
0.110509
0.118402
0.124479
0.12503
0.119716
0.110262
0.098371
0.0848688
0.0697182
0.052357
0.0321845
0.00975279
-0.0122671
-0.0299201
-0.0401062
-0.0415691
-0.0345035
-0.0204536
-0.00245608
0.0156576
0.0307032
0.0408629
0.0457294
0.046031
0.0433186
0.0391282
0.0342309
0.0288632
0.0231993
0.0175689
0.012308
0.00778843
0.00419714
0.00131143
0.0015454
0.00472829
0.00835811
0.0129141
0.018388
0.0244439
0.03079
0.0369363
0.0422219
0.0460306
0.0477456
0.0461615
0.0397918
0.0279133
0.0111891
-0.00829737
-0.027299
-0.0417696
-0.0481884
-0.0448095
-0.0318584
-0.0111647
0.0139173
0.0393008
0.0618339
0.0802935
0.0950162
0.106752
0.115707
0.121231
0.122232
0.117918
0.109325
0.100291
0.0955531
0.0969621
0.101557
0.102902
0.0953958
0.0783571
0.0561971
0.0351766
0.0192755
0.00790044
-0.00227355
-0.0134853
-0.0249268
-0.0338878
-0.0387667
-0.040438
-0.040438
-0.0387673
-0.0338893
-0.0249294
-0.0134883
-0.00227603
0.00789914
0.0192754
0.0351772
0.0561979
0.078358
0.095397
0.102904
0.101559
0.0969645
0.0955556
0.100293
0.109328
0.117921
0.122234
0.121234
0.11571
0.106755
0.0950179
0.0802936
0.061832
0.0392971
0.0139122
-0.0111705
-0.0318642
-0.0448148
-0.0481928
-0.0417728
-0.0273003
-0.00829659
0.0111917
0.0279169
0.0397952
0.0461638
0.0477467
0.046031
0.0422223
0.0369369
0.0307906
0.0244441
0.0183877
0.0129133
0.0083573
0.00472775
0.00154523
0.00167338
0.00493035
0.00831113
0.0124592
0.017531
0.0233547
0.0298862
0.0366101
0.042306
0.0457273
0.0461615
0.0427338
0.034332
0.0206346
0.00272719
-0.017233
-0.0363062
-0.0505469
-0.0560748
-0.0509046
-0.0355782
-0.0124142
0.0150281
0.0425714
0.066664
0.0855521
0.0994151
0.109177
0.115106
0.116651
0.113336
0.105371
0.0945083
0.0846002
0.0799303
0.0820008
0.0878896
0.0913306
0.0867047
0.0729439
0.053621
0.0340498
0.0177837
0.004603
-0.00793241
-0.0214141
-0.0350719
-0.0464578
-0.0537556
-0.0570353
-0.0570353
-0.0537561
-0.0464593
-0.0350743
-0.0214168
-0.00793432
0.00460246
0.0177844
0.0340509
0.0536221
0.0729448
0.0867056
0.0913317
0.0878911
0.0820024
0.0799316
0.0846012
0.0945093
0.105372
0.113338
0.116654
0.11511
0.109181
0.0994183
0.0855537
0.0666635
0.0425688
0.015024
-0.0124194
-0.035584
-0.0509104
-0.0560801
-0.0505509
-0.0363084
-0.0172333
0.00272845
0.0206369
0.0343347
0.0427363
0.0461638
0.0457294
0.0423078
0.0366112
0.0298865
0.0233543
0.0175303
0.0124586
0.00831084
0.00493034
0.00167343
0.00155328
0.00447472
0.00735504
0.0108881
0.015228
0.020269
0.0262343
0.0327393
0.038208
0.0408593
0.0397918
0.034332
0.023751
0.0082681
-0.0104814
-0.0302635
-0.0485683
-0.0617916
-0.0659585
-0.0589873
-0.041691
-0.0167343
0.0122492
0.041083
0.065921
0.0846258
0.097325
0.105113
0.108253
0.106222
0.0990792
0.0879661
0.0752873
0.0648137
0.0602852
0.0628392
0.0696531
0.0747988
0.0728498
0.0624545
0.0463287
0.0287279
0.0126359
-0.00186468
-0.0163415
-0.0317443
-0.0473437
-0.0609713
-0.0705975
-0.0754529
-0.0754529
-0.070598
-0.0609726
-0.0473458
-0.0317465
-0.0163427
-0.00186449
0.0126372
0.0287295
0.04633
0.0624553
0.0728504
0.0747995
0.069654
0.0628399
0.0602854
0.0648134
0.075287
0.0879665
0.0990808
0.106226
0.108257
0.105117
0.0973292
0.0846286
0.0659218
0.0410819
0.0122464
-0.0167385
-0.0416962
-0.058993
-0.065964
-0.0617961
-0.0485714
-0.0302653
-0.010482
0.0082685
0.0237525
0.0343347
0.0397952
0.0408629
0.0382107
0.0327407
0.0262344
0.0202684
0.0152273
0.0108878
0.00735518
0.00447502
0.00155343
0.0011691
0.00333706
0.00552015
0.00837641
0.0118791
0.0157789
0.0203939
0.0255268
0.0295949
0.0306993
0.0279133
0.0206346
0.0082681
-0.0086179
-0.0278837
-0.0471187
-0.0641264
-0.0757283
-0.0781399
-0.069425
-0.0506805
-0.0247654
0.00478513
0.0339376
0.0587021
0.0767256
0.0881832
0.0943233
0.0953298
0.0906014
0.080568
0.0671421
0.0532837
0.0426298
0.0383455
0.0412091
0.0485446
0.0549122
0.0552939
0.0481993
0.0355217
0.020389
0.00507516
-0.0101478
-0.0260308
-0.0428873
-0.0599904
-0.0754392
-0.0870379
-0.0932555
-0.0932556
-0.0870383
-0.0754403
-0.0599921
-0.0428888
-0.0260312
-0.0101469
0.00507696
0.0203908
0.0355229
0.0481999
0.0552943
0.0549126
0.048545
0.041209
0.0383446
0.0426284
0.0532824
0.0671416
0.0805691
0.0906042
0.095334
0.0943281
0.0881878
0.0767291
0.0587042
0.0339379
0.0047838
-0.0247682
-0.0506845
-0.0694298
-0.078145
-0.075733
-0.0641305
-0.047122
-0.0278862
-0.00861922
0.0082685
0.0206369
0.0279169
0.0307032
0.029598
0.0255286
0.0203945
0.0157789
0.0118791
0.00837662
0.00552045
0.00333731
0.0011692
0.000513384
0.00145039
0.00258823
0.00452011
0.00699118
0.0094835
0.0121907
0.0150351
0.0167091
0.0156544
0.0111891
0.00272719
-0.0104814
-0.0278837
-0.0470866
-0.0654951
-0.0810411
-0.0908973
-0.0916126
-0.0815612
-0.0621231
-0.036228
-0.00716978
0.0213075
0.0452504
0.0622637
0.0726325
0.0776888
0.0774251
0.0710449
0.0591795
0.0443416
0.0299592
0.0195067
0.0155671
0.0185691
0.0260232
0.0331099
0.0354152
0.0314541
0.0223576
0.0101035
-0.00384779
-0.0191527
-0.035827
-0.0535589
-0.0715662
-0.0881924
-0.101167
-0.108375
-0.108375
-0.101168
-0.0881933
-0.0715674
-0.0535596
-0.0358267
-0.0191512
-0.00384566
0.0101053
0.0223587
0.0314544
0.0354153
0.0331099
0.026023
0.0185683
0.0155654
0.0195044
0.029957
0.0443405
0.0591801
0.0710474
0.0774289
0.0776932
0.0726368
0.0622675
0.0452533
0.0213092
-0.00716936
-0.0362289
-0.0621253
-0.0815646
-0.0916168
-0.0909019
-0.0810459
-0.0654997
-0.0470905
-0.0278862
-0.010482
0.00272846
0.0111917
0.0156576
0.0167121
0.0150374
0.0121924
0.00948475
0.00699215
0.00452073
0.00258848
0.0014504
0.00051336
-0.000327794
-0.00100371
-0.00134029
-0.000806372
0.0002251
0.00103758
0.00159849
0.00184216
0.000824773
-0.00245768
-0.00829737
-0.017233
-0.0302635
-0.0471187
-0.0654951
-0.0827735
-0.0969082
-0.105274
-0.104737
-0.0940027
-0.0746798
-0.0496772
-0.0219683
0.00509599
0.0277549
0.0436934
0.0532944
0.0578602
0.0571111
0.0500153
0.0372976
0.021906
0.0076146
-0.00230572
-0.00584331
-0.00288372
0.0043147
0.0116409
0.0154074
0.0142426
0.00860733
-0.00060686
-0.0127691
-0.0275561
-0.0443579
-0.0622822
-0.0804506
-0.0974341
-0.111012
-0.118722
-0.118722
-0.111013
-0.0974346
-0.0804511
-0.0622821
-0.0443568
-0.0275542
-0.0127669
-0.000605218
0.00860805
0.0142426
0.0154072
0.0116406
0.00431414
-0.00288504
-0.00584554
-0.0023085
0.00761202
0.0219045
0.0372979
0.0500171
0.0571141
0.0578636
0.053298
0.043697
0.0277583
0.00509903
-0.021966
-0.0496761
-0.0746799
-0.0940043
-0.10474
-0.105279
-0.096913
-0.0827786
-0.0654997
-0.047122
-0.0302653
-0.0172333
-0.00829659
-0.00245607
0.000827008
0.00184477
0.00160117
0.00103996
0.000226837
-0.000805452
-0.00134007
-0.00100382
-0.000327879
-0.00107295
-0.00324605
-0.00515341
-0.00634858
-0.00715128
-0.00825668
-0.00984146
-0.0119912
-0.0153464
-0.0204535
-0.027299
-0.0363062
-0.0485683
-0.0641264
-0.0810411
-0.0969082
-0.109715
-0.116945
-0.115723
-0.105028
-0.0865786
-0.0631695
-0.0374124
-0.0122029
0.00900358
0.0240236
0.0332501
0.0378331
0.0372175
0.0301964
0.0175365
0.00243832
-0.0111478
-0.0202161
-0.0233018
-0.0205582
-0.0139758
-0.00690927
-0.00224399
-0.00113508
-0.00365664
-0.00987325
-0.0199526
-0.0336833
-0.0499635
-0.0673738
-0.0848865
-0.101279
-0.114538
-0.12216
-0.12216
-0.114538
-0.101279
-0.0848862
-0.0673728
-0.0499617
-0.0336811
-0.0199505
-0.00987196
-0.00365629
-0.00113534
-0.00224443
-0.00690978
-0.0139767
-0.0205599
-0.0233043
-0.0202189
-0.0111503
0.00243686
0.0175365
0.0301976
0.0372195
0.0378354
0.0332528
0.0240268
0.00900733
-0.0121989
-0.0374086
-0.0631664
-0.0865766
-0.105027
-0.115724
-0.116948
-0.10972
-0.096913
-0.0810459
-0.0641304
-0.0485714
-0.0363084
-0.0273003
-0.0204536
-0.0153452
-0.0119888
-0.00983839
-0.00825374
-0.00714907
-0.00634728
-0.00515285
-0.00324588
-0.00107292
-0.00150815
-0.00463282
-0.00777777
-0.0106324
-0.0133381
-0.0163377
-0.0197635
-0.0236527
-0.0284439
-0.0345017
-0.0417696
-0.0505469
-0.0617916
-0.0757283
-0.0908973
-0.105274
-0.116945
-0.123512
-0.122356
-0.112629
-0.0959769
-0.0749609
-0.0517985
-0.0288747
-0.00923474
0.00507983
0.0143291
0.0193665
0.0193772
0.0130682
0.00122763
-0.0128443
-0.0251746
-0.0330836
-0.0356539
-0.0332982
-0.0277208
-0.0214683
-0.0165361
-0.0137403
-0.0135415
-0.0168352
-0.0245711
-0.0367574
-0.0519341
-0.06818
-0.0842294
-0.0990336
-0.11097
-0.117854
-0.117855
-0.11097
-0.0990333
-0.0842284
-0.0681781
-0.0519317
-0.036755
-0.0245693
-0.0168343
-0.0135415
-0.0137408
-0.0165367
-0.021469
-0.0277219
-0.0333
-0.0356564
-0.0330862
-0.0251767
-0.0128454
0.00122751
0.0130688
0.0193783
0.0193678
0.0143308
0.00508246
-0.00923106
-0.0288702
-0.0517937
-0.0749561
-0.0959729
-0.112627
-0.122356
-0.123513
-0.116948
-0.105279
-0.0909019
-0.075733
-0.0617961
-0.0505509
-0.0417728
-0.0345035
-0.028444
-0.0236511
-0.0197609
-0.0163349
-0.0133356
-0.0106305
-0.00777646
-0.00463199
-0.00150786
-0.00172133
-0.00535028
-0.00929808
-0.0134168
-0.0176352
-0.0220271
-0.0265348
-0.0310625
-0.0359231
-0.041566
-0.0481884
-0.0560748
-0.0659585
-0.0781399
-0.0916126
-0.104737
-0.115723
-0.122356
-0.122288
-0.114695
-0.10094
-0.0832501
-0.0634452
-0.0433488
-0.025484
-0.0117442
-0.00216433
0.00363849
0.00455847
-0.000730577
-0.0114081
-0.0241315
-0.0349708
-0.0416047
-0.0436912
-0.0419437
-0.0377882
-0.0329184
-0.0283613
-0.0244798
-0.0219811
-0.0224734
-0.0276725
-0.0379082
-0.0514879
-0.066003
-0.079853
-0.0921288
-0.101782
-0.1073
-0.107301
-0.101782
-0.0921282
-0.0798514
-0.0660005
-0.051485
-0.0379058
-0.027671
-0.0224729
-0.0219814
-0.0244805
-0.028362
-0.0329192
-0.0377894
-0.0419455
-0.0436934
-0.0416068
-0.0349723
-0.0241322
-0.0114082
-0.000730352
0.00455879
0.00363893
-0.0021634
-0.0117422
-0.0254807
-0.0433443
-0.0634398
-0.0832442
-0.100934
-0.11469
-0.122286
-0.122356
-0.115724
-0.10474
-0.0916168
-0.078145
-0.065964
-0.0560801
-0.0481928
-0.0415691
-0.0359247
-0.0310625
-0.0265336
-0.0220251
-0.0176329
-0.0134145
-0.00929602
-0.0053488
-0.00172078
-0.00192375
-0.0059412
-0.010342
-0.0151054
-0.0199879
-0.0247389
-0.029121
-0.0329097
-0.0363469
-0.0401019
-0.0448095
-0.0509046
-0.0589873
-0.069425
-0.0815612
-0.0940027
-0.105028
-0.112629
-0.114695
-0.110265
-0.100257
-0.086536
-0.0705919
-0.0536967
-0.0377824
-0.0245881
-0.0145636
-0.00793351
-0.0061355
-0.0105049
-0.0201567
-0.031688
-0.0412026
-0.0467268
-0.0485102
-0.0476246
-0.0452691
-0.042303
-0.0387666
-0.0344851
-0.0302569
-0.0282505
-0.0308953
-0.0389199
-0.0505211
-0.0628331
-0.0738473
-0.0827743
-0.0893045
-0.0929067
-0.0929067
-0.0893044
-0.0827734
-0.0738451
-0.06283
-0.050518
-0.0389176
-0.0308942
-0.0282504
-0.0302574
-0.0344858
-0.0387673
-0.0423038
-0.0452702
-0.0476261
-0.0485119
-0.0467281
-0.0412034
-0.0316883
-0.0201568
-0.010505
-0.00613572
-0.00793374
-0.0145634
-0.0245869
-0.0377798
-0.0536925
-0.0705863
-0.0865294
-0.10025
-0.110259
-0.11469
-0.112627
-0.105027
-0.0940042
-0.0815646
-0.0694298
-0.058993
-0.0509104
-0.0448148
-0.0401062
-0.03635
-0.0329116
-0.0291217
-0.0247383
-0.0199863
-0.0151032
-0.0103398
-0.00593955
-0.00192314
-0.00214421
-0.00646434
-0.0109053
-0.0154843
-0.0198528
-0.0235955
-0.0264558
-0.0282005
-0.0290569
-0.0299148
-0.0318584
-0.0355782
-0.041691
-0.0506805
-0.0621231
-0.0746798
-0.0865786
-0.0959769
-0.10094
-0.100257
-0.0943175
-0.0846713
-0.0725984
-0.0589195
-0.0449978
-0.0324213
-0.0220883
-0.014853
-0.0124619
-0.0162338
-0.0252068
-0.0359052
-0.0444386
-0.0491346
-0.0508194
-0.05099
-0.050722
-0.0501215
-0.0482629
-0.0443449
-0.0390738
-0.0350022
-0.0352074
-0.0408821
-0.0502284
-0.059963
-0.0676215
-0.0725292
-0.0752537
-0.0764943
-0.0764943
-0.0752534
-0.0725279
-0.0676189
-0.0599595
-0.0502251
-0.04088
-0.0352066
-0.0350025
-0.0390744
-0.0443455
-0.0482635
-0.0501221
-0.0507228
-0.050991
-0.0508203
-0.0491351
-0.0444386
-0.0359049
-0.0252066
-0.016234
-0.0124624
-0.0148538
-0.0220887
-0.0324208
-0.0449959
-0.0589159
-0.0725931
-0.0846647
-0.0943103
-0.10025
-0.100934
-0.0959729
-0.0865766
-0.0746799
-0.0621253
-0.0506845
-0.0416962
-0.035584
-0.0318642
-0.0299201
-0.0290614
-0.0282042
-0.0264583
-0.0235965
-0.0198524
-0.0154831
-0.0109038
-0.00646319
-0.00214379
-0.00228445
-0.00667298
-0.0106864
-0.0142579
-0.0169659
-0.0184048
-0.0185043
-0.0171906
-0.0147527
-0.0122613
-0.0111647
-0.0124142
-0.0167343
-0.0247654
-0.036228
-0.0496772
-0.0631695
-0.0749609
-0.0832501
-0.086536
-0.0846713
-0.078926
-0.0704734
-0.0598122
-0.0478266
-0.0359879
-0.0256244
-0.0181445
-0.0155066
-0.0189831
-0.0275649
-0.0377311
-0.0455774
-0.0496762
-0.0514067
-0.052764
-0.0548166
-0.0570021
-0.057438
-0.0545955
-0.0489103
-0.0431656
-0.0410379
-0.0442482
-0.0511129
-0.0579879
-0.0619403
-0.0624118
-0.060925
-0.0595439
-0.0595439
-0.0609246
-0.0624103
-0.0619373
-0.0579842
-0.0511096
-0.0442463
-0.0410375
-0.0431661
-0.048911
-0.054596
-0.0574383
-0.0570024
-0.054817
-0.0527643
-0.0514067
-0.0496758
-0.0455766
-0.0377303
-0.0275646
-0.0189834
-0.0155075
-0.0181457
-0.0256255
-0.0359881
-0.0478255
-0.0598093
-0.0704689
-0.0789201
-0.0846647
-0.0865294
-0.0832442
-0.0749561
-0.0631664
-0.0496761
-0.0362289
-0.0247682
-0.0167385
-0.0124194
-0.0111705
-0.0122671
-0.0147581
-0.0171954
-0.018508
-0.0184073
-0.0169671
-0.0142582
-0.0106863
-0.00667284
-0.00228441
-0.00233985
-0.00663017
-0.00998865
-0.0121319
-0.0125318
-0.0108926
-0.00746142
-0.0024432
0.0037204
0.00975835
0.0139173
0.0150281
0.0122492
0.00478513
-0.00716978
-0.0219683
-0.0374124
-0.0517985
-0.0634452
-0.0705919
-0.0725984
-0.0704734
-0.0653007
-0.0573213
-0.0470416
-0.0359011
-0.0256676
-0.0182174
-0.0156129
-0.0190572
-0.0275342
-0.037495
-0.0449867
-0.0487667
-0.0507425
-0.0534663
-0.0580977
-0.0634804
-0.0667834
-0.0656609
-0.0601236
-0.0530564
-0.0486954
-0.0493483
-0.0535619
-0.0574319
-0.0576014
-0.0536266
-0.0479532
-0.0439724
-0.0439724
-0.0479526
-0.0536249
-0.0575984
-0.0574282
-0.0535588
-0.0493465
-0.048695
-0.0530568
-0.0601241
-0.0656611
-0.0667834
-0.0634803
-0.0580976
-0.053466
-0.0507417
-0.0487655
-0.0449854
-0.037494
-0.0275339
-0.0190577
-0.0156142
-0.018219
-0.0256691
-0.0359019
-0.0470412
-0.0573194
-0.0652973
-0.0704689
-0.0725931
-0.0705863
-0.0634398
-0.0517937
-0.0374086
-0.021966
-0.00716936
0.0047838
0.0122464
0.015024
0.0139122
0.00975279
0.00371481
-0.00244845
-0.00746603
-0.0108964
-0.0125347
-0.0121341
-0.00999024
-0.00663119
-0.0023402
-0.00237379
-0.00657904
-0.00937434
-0.0101647
-0.00825498
-0.0034666
0.00363533
0.012545
0.0225827
0.0321892
0.0393008
0.0425714
0.041083
0.0339376
0.0213075
0.00509599
-0.0122029
-0.0288747
-0.0433488
-0.0536967
-0.0589195
-0.0598122
-0.0573213
-0.0514114
-0.0422873
-0.0314716
-0.0212182
-0.0138253
-0.0113987
-0.0150698
-0.0238275
-0.0340614
-0.0416958
-0.0455873
-0.0481124
-0.0524066
-0.0598239
-0.0687361
-0.0754257
-0.0766732
-0.0719202
-0.0640091
-0.0576599
-0.0557964
-0.0573181
-0.0582167
-0.0548278
-0.0468236
-0.0374356
-0.0311703
-0.0311701
-0.0374349
-0.0468218
-0.0548248
-0.0582132
-0.0573151
-0.0557948
-0.0576594
-0.0640093
-0.0719204
-0.0766731
-0.0754252
-0.0687356
-0.0598232
-0.0524055
-0.0481109
-0.0455856
-0.0416943
-0.0340604
-0.0238274
-0.0150707
-0.0114003
-0.0138274
-0.0212201
-0.031473
-0.0422878
-0.0514107
-0.0573194
-0.0598093
-0.0589159
-0.0536925
-0.0433443
-0.0288702
-0.0121989
0.00509903
0.0213092
0.0339379
0.0410819
0.0425688
0.0392971
0.0321845
0.0225774
0.0125396
0.00362998
-0.0034717
-0.00825968
-0.0101687
-0.00937749
-0.00658103
-0.00237447
-0.00224958
-0.00612546
-0.0082802
-0.00782842
-0.0039064
0.00359534
0.0138997
0.02626
0.0397156
0.0523604
0.0618339
0.066664
0.065921
0.0587021
0.0452504
0.0277549
0.00900358
-0.00923474
-0.025484
-0.0377824
-0.0449978
-0.0478266
-0.0470416
-0.0422873
-0.0335074
-0.022372
-0.0116349
-0.00400084
-0.00162585
-0.00560301
-0.014926
-0.0258706
-0.0341467
-0.0385828
-0.0419078
-0.0478324
-0.0580314
-0.0705926
-0.081044
-0.0852875
-0.0820749
-0.0740378
-0.0662318
-0.062144
-0.0611099
-0.0592153
-0.0526911
-0.0413671
-0.0290594
-0.0210423
-0.0210421
-0.0290584
-0.0413652
-0.0526882
-0.0592121
-0.0611072
-0.0621424
-0.0662313
-0.0740378
-0.0820747
-0.0852869
-0.0810431
-0.0705914
-0.05803
-0.0478308
-0.0419059
-0.038581
-0.0341454
-0.02587
-0.0149264
-0.0056043
-0.00162789
-0.00400325
-0.0116373
-0.0223739
-0.0335086
-0.0422878
-0.0470412
-0.0478255
-0.0449959
-0.0377799
-0.0254807
-0.00923106
0.00900733
0.0277583
0.0452533
0.0587042
0.0659218
0.0666635
0.061832
0.052357
0.039711
0.0262546
0.0138938
0.00358921
-0.00391246
-0.00783386
-0.00828442
-0.00612808
-0.00225046
-0.00164828
-0.00430021
-0.00512492
-0.00311663
0.00265487
0.0122841
0.0249264
0.0396823
0.0553393
0.0697199
0.0802935
0.0855521
0.0846258
0.0767256
0.0622637
0.0436934
0.0240236
0.00507983
-0.0117442
-0.0245881
-0.0324213
-0.0359879
-0.0359011
-0.0314716
-0.022372
-0.0103655
0.00137233
0.00975393
0.0125163
0.00852453
-0.00127119
-0.0130407
-0.0222261
-0.0274874
-0.0317423
-0.039214
-0.0519865
-0.0680574
-0.0823879
-0.0900843
-0.0891633
-0.0818833
-0.0734108
-0.0676338
-0.0643403
-0.0599265
-0.0507983
-0.0370348
-0.022804
-0.0137092
-0.0137088
-0.0228027
-0.0370327
-0.0507955
-0.0599235
-0.0643379
-0.0676324
-0.0734101
-0.0818829
-0.0891627
-0.0900833
-0.0823865
-0.0680558
-0.0519846
-0.039212
-0.0317403
-0.0274858
-0.0222253
-0.0130407
-0.0012722
0.00852268
0.0125139
0.00975113
0.00136959
-0.0103679
-0.0223739
-0.031473
-0.0359019
-0.0359882
-0.0324208
-0.0245869
-0.0117422
0.00508245
0.0240268
0.043697
0.0622675
0.0767291
0.0846286
0.0855537
0.0802936
0.0697182
0.0553359
0.0396775
0.0249206
0.0122777
0.00264834
-0.00312254
-0.00512949
-0.00430301
-0.00164921
-0.000416761
-0.000613916
0.000950623
0.00516266
0.0128611
0.0241573
0.0382409
0.0541162
0.0704074
0.0848689
0.0950162
0.0994151
0.097325
0.0881832
0.0726325
0.0532944
0.0332501
0.0143291
-0.00216433
-0.0145636
-0.0220883
-0.0256244
-0.0256676
-0.0212182
-0.0116349
0.00137233
0.0143681
0.0239427
0.0276658
0.024241
0.014437
0.00208577
-0.00801727
-0.0142704
-0.0196025
-0.0285967
-0.0437138
-0.0629832
-0.0810125
-0.0923041
-0.0942145
-0.0885269
-0.0802636
-0.0734683
-0.0683337
-0.0617813
-0.0507072
-0.0355512
-0.02057
-0.0111878
-0.0111872
-0.0205684
-0.0355488
-0.0507045
-0.0617788
-0.0683318
-0.0734671
-0.0802628
-0.0885263
-0.0942136
-0.0923027
-0.0810108
-0.0629813
-0.0437118
-0.0285947
-0.0196008
-0.0142695
-0.00801718
0.0020849
0.0144352
0.0242386
0.0276629
0.0239396
0.014365
0.00136958
-0.0116373
-0.0212201
-0.0256691
-0.0256255
-0.0220887
-0.0145634
-0.00216341
0.0143308
0.0332528
0.053298
0.0726367
0.0881878
0.0973292
0.0994183
0.0950179
0.0848688
0.0704053
0.0541124
0.0382358
0.0241514
0.0128551
0.00515727
0.000946434
-0.000616539
-0.000417645
0.00134346
0.00464437
0.009523
0.0165555
0.0263625
0.0390642
0.0538974
0.069782
0.0852993
0.09837
0.106752
0.109177
0.105113
0.0943233
0.0776888
0.0578602
0.0378331
0.0193665
0.00363849
-0.00793351
-0.014853
-0.0181445
-0.0182174
-0.0138253
-0.00400084
0.00975393
0.0239427
0.0349455
0.0401363
0.0379406
0.0287946
0.0163675
0.00556617
-0.0017415
-0.00833034
-0.0189065
-0.0361462
-0.0581393
-0.0793457
-0.0939353
-0.098802
-0.0952486
-0.0879256
-0.0807592
-0.0742593
-0.0660616
-0.0538512
-0.0385173
-0.0241043
-0.0153098
-0.0153092
-0.0241026
-0.038515
-0.053849