/*--------------------------------*- C++ -*----------------------------------*\
  =========                 |
  \\      /  F ield         | OpenFOAM: The Open Source CFD Toolbox
   \\    /   O peration     | Website:  https://openfoam.org
    \\  /    A nd           | Version:  10
     \\/     M anipulation  |
\*---------------------------------------------------------------------------*/
FoamFile
{
    format      ascii;
    class       volScalarField;
    location    "68";
    object      h_0;
}
// * * * * * * * * * * * * * * * * * * * * * * * * * * * * * * * * * * * * * //

dimensions      [0 1 0 0 0 0 0];

internalField   nonuniform List<scalar> 
10000
(
-0.000179247
-0.000362489
-0.000179761
0.000267322
0.000784486
0.00119873
0.00136491
0.00129104
0.00119439
0.00130027
0.00154324
0.00167809
0.00156204
0.00117883
0.000521332
-0.000321582
-0.00106696
-0.00150601
-0.00173183
-0.00195201
-0.00218651
-0.00233286
-0.00238651
-0.00240951
-0.0022654
-0.0016414
-0.000392609
0.00137694
0.00355025
0.00600588
0.00839274
0.010194
0.0110711
0.0111183
0.0107274
0.0101554
0.00924809
0.00768008
0.00531313
0.00241184
-0.000322626
-0.00213148
-0.00272482
-0.00242836
-0.00193378
-0.00171514
-0.00165752
-0.00140309
-0.000868988
-0.000387127
-0.000387129
-0.000868994
-0.00140311
-0.0016576
-0.00171531
-0.00193409
-0.00242879
-0.00272529
-0.00213188
-0.000322886
0.00241176
0.00531324
0.00768039
0.00924862
0.0101561
0.0107283
0.0111193
0.0110719
0.0101946
0.00839287
0.00600561
0.00354967
0.00137617
-0.000393491
-0.00164233
-0.00226627
-0.00241019
-0.00238688
-0.00233281
-0.00218609
-0.00195138
-0.00173127
-0.00150572
-0.00106693
-0.000321671
0.000521302
0.00117893
0.0015622
0.00167815
0.00154307
0.00129992
0.00119409
0.00129104
0.00136526
0.00119922
0.000784786
0.000267182
-0.000180298
-0.000363093
-0.000179511
-0.000362489
-0.000665424
-0.000102796
0.00106255
0.00240643
0.0035626
0.00414305
0.00408755
0.00390206
0.00416759
0.00471975
0.00493893
0.00449616
0.00336482
0.00147589
-0.000982956
-0.00322824
-0.00462945
-0.00538613
-0.00602953
-0.00659305
-0.0068184
-0.00676973
-0.00668658
-0.00617558
-0.004285
-0.000548699
0.00473756
0.0111953
0.0184175
0.0253546
0.0305193
0.0329789
0.0330662
0.0319473
0.0303491
0.0277715
0.0232157
0.0162589
0.00769365
-0.000394562
-0.00575957
-0.00754673
-0.00672442
-0.00533299
-0.00476075
-0.00466001
-0.00396636
-0.00242977
-0.00102905
-0.00102908
-0.00242986
-0.00396651
-0.00466029
-0.00476128
-0.00533386
-0.0067256
-0.00754805
-0.00576076
-0.000395401
0.00769332
0.0162591
0.0232166
0.0277732
0.0303515
0.03195
0.033069
0.0329813
0.0305209
0.0253551
0.0184169
0.0111938
0.00473539
-0.000551312
-0.00428781
-0.00617821
-0.0066886
-0.00677077
-0.00681828
-0.0065919
-0.00602787
-0.00538463
-0.00462861
-0.00322807
-0.00098307
0.0014759
0.00336507
0.00449647
0.00493894
0.00471922
0.00416668
0.00390136
0.00408764
0.00414398
0.00356381
0.00240711
0.00106219
-0.000104065
-0.000666825
-0.000363095
-0.000179761
-0.000102796
0.000818866
0.00225586
0.0039099
0.00557811
0.00676851
0.00718708
0.00728748
0.00774848
0.00833971
0.00831323
0.00738037
0.00556406
0.00263533
-0.00130092
-0.0051254
-0.00778092
-0.0093681
-0.0104946
-0.0111177
-0.0109205
-0.0102105
-0.00954511
-0.00836196
-0.00510589
0.00104714
0.00966407
0.0200897
0.0315797
0.0424229
0.0503083
0.0538836
0.0538215
0.0520522
0.0497002
0.0458636
0.0388166
0.0277909
0.0140449
0.000956859
-0.0078249
-0.010889
-0.00977937
-0.00776234
-0.00704734
-0.00706691
-0.00609868
-0.0037307
-0.00153517
-0.00153526
-0.00373094
-0.00609906
-0.00706748
-0.00704824
-0.00776368
-0.00978115
-0.010891
-0.00782679
0.000955448
0.0140443
0.0277913
0.0388182
0.0458664
0.0497041
0.0520566
0.0538258
0.0538873
0.0503107
0.0424238
0.031579
0.0200876
0.00966078
0.00104296
-0.00511046
-0.0083662
-0.00954828
-0.0102121
-0.0109204
-0.0111162
-0.0104924
-0.00936602
-0.00777959
-0.00512483
-0.00130069
0.00263557
0.00556436
0.00738052
0.00831295
0.00833891
0.00774745
0.00728688
0.00718738
0.00676959
0.00557931
0.00391047
0.00225543
0.000817666
-0.000104066
-0.0001803
0.000267322
0.00106255
0.00225586
0.00352854
0.00498821
0.00690735
0.008881
0.0103091
0.0112845
0.0122617
0.0128826
0.0124473
0.0109105
0.00843385
0.00458963
-0.000748304
-0.00631511
-0.0106501
-0.0135254
-0.0153165
-0.0157634
-0.014556
-0.0124086
-0.0103748
-0.00792624
-0.0030879
0.00528832
0.0167362
0.030417
0.0452936
0.0590901
0.0688293
0.0728903
0.0723642
0.0699468
0.0671415
0.0626519
0.0539705
0.0398369
0.0217903
0.00429422
-0.00773585
-0.012294
-0.0113294
-0.00910748
-0.00852497
-0.00885404
-0.00782579
-0.00488256
-0.00208918
-0.00208927
-0.00488285
-0.00782631
-0.00885488
-0.00852627
-0.00910935
-0.0113317
-0.0122965
-0.00773822
0.00429249
0.0217896
0.0398375
0.0539726
0.0626555
0.0671464
0.0699524
0.0723697
0.0728951
0.0688326
0.0590915
0.045293
0.0304144
0.0167321
0.00528295
-0.00309381
-0.0079317
-0.0103789
-0.0124109
-0.0145563
-0.0157621
-0.0153143
-0.0135231
-0.0106482
-0.00631379
-0.000747371
0.00459026
0.00843406
0.0109103
0.0124466
0.0128819
0.0122611
0.0112843
0.0103096
0.00888163
0.00690776
0.0049882
0.00352823
0.00225543
0.00106219
0.00026718
0.000784486
0.00240643
0.0039099
0.00498821
0.00613913
0.00814744
0.01085
0.0134703
0.0156843
0.0175159
0.0183434
0.0175043
0.0152441
0.0119429
0.00707348
0.000290918
-0.0071239
-0.0133796
-0.0177837
-0.0202476
-0.0201789
-0.017303
-0.0128376
-0.00848252
-0.00400611
0.00269835
0.0130132
0.0265739
0.042523
0.0596395
0.0752222
0.0858026
0.0896321
0.0882755
0.0851821
0.0822262
0.0777567
0.0684464
0.0523782
0.0311394
0.0100068
-0.00502605
-0.0113283
-0.0110454
-0.0091537
-0.00906527
-0.00996364
-0.00917263
-0.00600429
-0.00287817
-0.00287824
-0.00600454
-0.00917322
-0.00996475
-0.00906703
-0.00915613
-0.0110483
-0.0113313
-0.0050286
0.0100051
0.0311388
0.052379
0.0684487
0.0777607
0.0822316
0.0851885
0.088282
0.0896379
0.0858068
0.0752241
0.059639
0.0425203
0.0265693
0.0130072
0.00269182
-0.00401219
-0.00848726
-0.0128406
-0.0173042
-0.0201786
-0.020246
-0.0177814
-0.0133771
-0.00712167
0.000292678
0.00707446
0.011943
0.0152434
0.0175035
0.0183431
0.017516
0.0156846
0.0134705
0.0108497
0.00814678
0.00613856
0.0049882
0.00391047
0.00240711
0.000784786
0.00119873
0.0035626
0.00557811
0.00690735
0.00814744
0.0103149
0.0135062
0.0170247
0.0203582
0.0231379
0.0243911
0.0233216
0.0202828
0.0158443
0.00956755
0.00109974
-0.00824305
-0.0164042
-0.0222085
-0.025033
-0.0239512
-0.0187629
-0.0112102
-0.00369707
0.00350111
0.0123401
0.024325
0.0392898
0.0564771
0.0745661
0.090604
0.100887
0.103743
0.101264
0.0975741
0.0948328
0.0910432
0.0820564
0.0652078
0.0419562
0.0181144
0.000500218
-0.0076788
-0.00859299
-0.00762571
-0.00849089
-0.0103216
-0.0101613
-0.00719884
-0.00405359
-0.00405366
-0.00719914
-0.010162
-0.0103231
-0.00849309
-0.00762855
-0.00859615
-0.00768183
0.000497753
0.0181129
0.0419558
0.0652088
0.0820589
0.0910474
0.0948384
0.0975806
0.101271
0.103749
0.100891
0.0906065
0.074566
0.0564746
0.0392854
0.0243192
0.0123337
0.00349496
-0.00370221
-0.011214
-0.0187654
-0.0239522
-0.0250324
-0.0222066
-0.0164014
-0.00824011
0.00110214
0.00956881
0.0158443
0.0202822
0.0233212
0.0243913
0.0231385
0.0203586
0.0170244
0.0135051
0.0103136
0.00814678
0.00690776
0.00557931
0.00356381
0.00119922
0.00136491
0.00414305
0.00676851
0.008881
0.01085
0.0135062
0.0170561
0.0210653
0.0251502
0.0287922
0.0307374
0.0298609
0.0262566
0.0204637
0.0122746
0.00165695
-0.00983549
-0.0198411
-0.026728
-0.029424
-0.0268149
-0.0188579
-0.00776509
0.00342559
0.0138272
0.0249995
0.0384175
0.0541229
0.0715016
0.0892072
0.104266
0.11307
0.114267
0.11049
0.106377
0.10423
0.101712
0.0939069
0.0773883
0.0533494
0.0278492
0.00822292
-0.00185062
-0.00441637
-0.00495116
-0.00724044
-0.010393
-0.0112964
-0.00901598
-0.00619461
-0.0061947
-0.00901639
-0.0112974
-0.0103948
-0.00724302
-0.0049542
-0.00441947
-0.00185341
0.00822078
0.027848
0.0533492
0.0773894
0.0939095
0.101716
0.104235
0.106383
0.110497
0.114274
0.113075
0.104268
0.0892078
0.0714999
0.0541192
0.0384124
0.0249936
0.0138213
0.00342022
-0.00776973
-0.0188617
-0.0268174
-0.0294247
-0.0267268
-0.0198386
-0.00983243
0.00165965
0.0122763
0.0204643
0.0262567
0.0298612
0.030738
0.0287928
0.02515
0.0210644
0.0170548
0.0135051
0.0108497
0.00888163
0.00676959
0.00414398
0.00136526
0.00129104
0.00408755
0.00718708
0.0103091
0.0134703
0.0170247
0.0210653
0.0253878
0.0298861
0.0341552
0.0368911
0.0366003
0.0327743
0.0256012
0.0151189
0.00190128
-0.0119817
-0.0237224
-0.0312405
-0.0331893
-0.0285291
-0.0175057
-0.00269829
0.0123894
0.0262364
0.0397893
0.0543084
0.0700066
0.0864561
0.102404
0.115119
0.121406
0.120394
0.115193
0.110767
0.109451
0.108628
0.102728
0.0875729
0.063944
0.0378385
0.0167933
0.00485017
0.000247374
-0.00227995
-0.00638596
-0.0112016
-0.0135939
-0.0124929
-0.0103579
-0.010358
-0.0124933
-0.0135951
-0.0112037
-0.00638884
-0.0022831
0.00024446
0.00484782
0.0167917
0.0378377
0.0639441
0.0875741
0.10273
0.108632
0.109456
0.110773
0.115199
0.120399
0.12141
0.115122
0.102406
0.0864555
0.0700043
0.0543046
0.0397844
0.026231
0.012384
-0.00270354
-0.0175105
-0.0285328
-0.0331913
-0.0312406
-0.0237209
-0.0119793
0.00190389
0.0151212
0.025603
0.0327757
0.0366014
0.0368918
0.0341552
0.0298853
0.0253867
0.0210644
0.0170244
0.0134705
0.0103096
0.00718738
0.00408764
0.00129104
0.00119439
0.00390206
0.00728748
0.0112845
0.0156843
0.0203582
0.0251502
0.0298861
0.0345962
0.0390614
0.0421904
0.042312
0.0382535
0.0296729
0.0167967
0.00089499
-0.0153165
-0.0284823
-0.0360564
-0.03657
-0.0293229
-0.015001
0.00353848
0.022502
0.0397565
0.0554902
0.0706205
0.0855253
0.100027
0.113091
0.122438
0.125505
0.121975
0.115311
0.110616
0.110189
0.111243
0.107714
0.0947401
0.0725709
0.0468557
0.0250198
0.0113332
0.00444172
-0.000441938
-0.00666973
-0.0134389
-0.017717
-0.0182752
-0.0171761
-0.0171762
-0.0182756
-0.0177183
-0.0134413
-0.00667282
-0.000445089
0.00443911
0.0113314
0.0250188
0.0468555
0.0725714
0.0947413
0.107717
0.111247
0.110194
0.110621
0.115316
0.12198
0.125509
0.122441
0.113093
0.100028
0.0855247
0.0706185
0.0554868
0.039752
0.0224968
0.0035329
-0.0150064
-0.0293275
-0.0365732
-0.0360579
-0.0284824
-0.0153153
0.000897203
0.0167996
0.0296761
0.0382562
0.0423138
0.0421908
0.0390607
0.034595
0.0298853
0.02515
0.0203586
0.0156846
0.0112843
0.00728688
0.00390136
0.00119409
0.00130027
0.00416759
0.00774848
0.0122617
0.0175159
0.0231379
0.0287922
0.0341552
0.0390614
0.0432769
0.0460228
0.0457558
0.040924
0.0307959
0.0157684
-0.00234757
-0.0203703
-0.0344731
-0.0416173
-0.0402334
-0.0300899
-0.0124235
0.00966056
0.0321885
0.052467
0.0699141
0.0851026
0.0985981
0.110479
0.119954
0.125311
0.124781
0.118659
0.110641
0.105768
0.106209
0.109091
0.108066
0.0977607
0.0778855
0.0535164
0.0316452
0.0165554
0.0073343
-0.000124985
-0.00870837
-0.0176722
-0.0241593
-0.0267608
-0.0269736
-0.0269737
-0.0267613
-0.0241607
-0.0176747
-0.00871152
-0.000127915
0.00733225
0.0165544
0.031645
0.0535168
0.0778863
0.097762
0.108068
0.109093
0.106212
0.105772
0.110645
0.118663
0.124785
0.125315
0.119956
0.110481
0.0985991
0.0851025
0.0699124
0.0524637
0.0321838
0.00965502
-0.0124293
-0.0300952
-0.0402378
-0.0416204
-0.0344749
-0.0203705
-0.002346
0.0157716
0.0307999
0.0409275
0.0457579
0.0460232
0.0432763
0.0390607
0.0341552
0.0287928
0.0231385
0.017516
0.0122611
0.00774745
0.00416668
0.00129991
0.00154324
0.00471975
0.00833971
0.0128826
0.0183434
0.0243911
0.0307374
0.0368911
0.0421904
0.0460228
0.047772
0.046227
0.0398978
0.0280599
0.0113684
-0.00810448
-0.0271188
-0.0416308
-0.048116
-0.0448115
-0.0319113
-0.011218
0.0139183
0.0393885
0.0620107
0.0805342
0.0952749
0.10699
0.115924
0.121464
0.122513
0.118239
0.109626
0.10049
0.0955952
0.0968488
0.101353
0.10271
0.095287
0.0783252
0.0561659
0.0350667
0.0190764
0.00769575
-0.00236249
-0.0133856
-0.024659
-0.0335452
-0.0384403
-0.0401497
-0.0401498
-0.0384408
-0.0335467
-0.0246615
-0.0133886
-0.00236497
0.00769445
0.0190763
0.0350673
0.0561667
0.078326
0.0952882
0.102712
0.101356
0.0968512
0.0955976
0.100492
0.109628
0.118242
0.122516
0.121467
0.115927
0.106992
0.0952766
0.0805342
0.0620088
0.0393848
0.0139133
-0.0112238
-0.0319171
-0.0448168
-0.0481205
-0.041634
-0.0271202
-0.00810374
0.011371
0.0280635
0.0399012
0.0462294
0.0477731
0.0460232
0.0421908
0.0368918
0.030738
0.0243913
0.0183431
0.0128819
0.00833891
0.00471922
0.00154307
0.00167809
0.00493893
0.00831323
0.0124473
0.0175043
0.0233216
0.0298609
0.0366003
0.042312
0.0457558
0.046227
0.0428468
0.034497
0.0208562
0.00300201
-0.0169256
-0.0359989
-0.0502703
-0.0558532
-0.0507528
-0.0354863
-0.0123392
0.015142
0.0427554
0.0669149
0.085843
0.0997064
0.109436
0.115337
0.116893
0.11363
0.105718
0.0948561
0.084869
0.080066
0.0820053
0.0878225
0.0912803
0.086731
0.0730336
0.0536992
0.0340404
0.0176754
0.00447325
-0.00797031
-0.0212894
-0.0347953
-0.0461046
-0.0534024
-0.0567051
-0.0567051
-0.0534029
-0.0461061
-0.0347977
-0.0212921
-0.00797223
0.0044727
0.0176761
0.0340415
0.0537003
0.0730344
0.0867319
0.0912815
0.087824
0.0820069
0.0800673
0.08487
0.0948571
0.10572
0.113632
0.116897
0.115341
0.10944
0.0997096
0.0858446
0.0669144
0.0427529
0.0151379
-0.0123444
-0.0354921
-0.0507587
-0.0558585
-0.0502743
-0.0360012
-0.016926
0.00300323
0.0208584
0.0344996
0.0428494
0.0462294
0.0457579
0.0423138
0.0366014
0.0298612
0.0233212
0.0175035
0.0124466
0.00831295
0.00493894
0.00167815
0.00156204
0.00449616
0.00738037
0.0109105
0.0152441
0.0202828
0.0262566
0.0327743
0.0382535
0.040924
0.0398978
0.034497
0.0239842
0.00857965
-0.0100922
-0.029823
-0.0481192
-0.0613681
-0.0655841
-0.0586816
-0.0414561
-0.0165357
0.0124654
0.0413455
0.0662239
0.0849467
0.0976361
0.105391
0.108503
0.106481
0.0993915
0.0883433
0.0756827
0.0651505
0.0605115
0.0629572
0.0697163
0.0748828
0.0730018
0.0626573
0.046512
0.0288207
0.0126261
-0.00191073
-0.0163252
-0.0316016
-0.0470758
-0.060631
-0.0702421
-0.0751043
-0.0751043
-0.0702426
-0.0606323
-0.0470779
-0.0316038
-0.0163264
-0.00191055
0.0126273
0.0288223
0.0465132
0.0626581
0.0730025
0.0748836
0.0697171
0.0629579
0.0605117
0.0651502
0.0756824
0.0883437
0.0993931
0.106484
0.108507
0.105395
0.0976403
0.0849495
0.0662248
0.0413444
0.0124625
-0.0165399
-0.0414613
-0.0586873
-0.0655896
-0.0613726
-0.0481223
-0.0298249
-0.0100929
0.00858001
0.0239857
0.0344996
0.0399012
0.0409275
0.0382563
0.0327757
0.0262567
0.0202822
0.0152434
0.0109103
0.00738052
0.00449647
0.0015622
0.00117883
0.00336482
0.00556406
0.00843385
0.0119429
0.0158443
0.0204637
0.0256012
0.0296729
0.0307959
0.0280599
0.0208562
0.00857965
-0.00820125
-0.0273622
-0.0465279
-0.0635229
-0.0751543
-0.0776204
-0.0689838
-0.0503284
-0.0244743
0.00506655
0.0342363
0.059013
0.0770357
0.088481
0.0945968
0.0955831
0.0908657
0.0808874
0.0675327
0.0537035
0.0430056
0.03863
0.0414068
0.0487043
0.0550967
0.0555375
0.0484815
0.0357797
0.0205607
0.00514833
-0.010121
-0.0259734
-0.042748
-0.0597628
-0.0751512
-0.0867231
-0.0929324
-0.0929324
-0.0867235
-0.0751524
-0.0597645
-0.0427495
-0.0259739
-0.0101202
0.00515011
0.0205625
0.0357809
0.0484822
0.0555379
0.0550971
0.0487046
0.0414067
0.0386291
0.0430042
0.0537022
0.0675322
0.0808885
0.0908685
0.0955873
0.0946017
0.0884856
0.0770393
0.0590151
0.0342367
0.00506527
-0.024477
-0.0503323
-0.0689885
-0.0776255
-0.0751591
-0.063527
-0.0465313
-0.0273648
-0.00820261
0.00858001
0.0208584
0.0280635
0.0307999
0.0296761
0.025603
0.0204643
0.0158443
0.011943
0.00843406
0.00556436
0.00336508
0.00117893
0.000521332
0.00147589
0.00263533
0.00458963
0.00707348
0.00956755
0.0122746
0.0151189
0.0167967
0.0157684
0.0113684
0.00300201
-0.0100922
-0.0273622
-0.0464345
-0.0647577
-0.0802891
-0.0901843
-0.0909701
-0.0810182
-0.0616952
-0.0358884
-0.00686678
0.0216009
0.0455319
0.0625309
0.0728902
0.0779367
0.0776659
0.0713013
0.0594897
0.0447206
0.0303674
0.0198774
0.0158618
0.0187984
0.0262322
0.0333477
0.0357013
0.0317652
0.022641
0.0103099
-0.00372827
-0.0190848
-0.0357611
-0.0534616
-0.0714263
-0.0880114
-0.100952
-0.108137
-0.108137
-0.100952
-0.0880123
-0.0714274
-0.0534624
-0.0357608
-0.0190833
-0.00372615
0.0103117
0.0226421
0.0317655
0.0357014
0.0333478
0.0262321
0.0187976
0.0158602
0.0198751
0.0303653
0.0447195
0.0594903
0.0713037
0.0776697
0.077941
0.0728945
0.0625347
0.0455348
0.0216027
-0.0068663
-0.0358892
-0.0616973
-0.0810215
-0.0909743
-0.0901889
-0.0802939
-0.0647623
-0.0464385
-0.0273648
-0.0100929
0.00300323
0.011371
0.0157716
0.0167996
0.0151212
0.0122763
0.00956882
0.00707447
0.00459026
0.00263558
0.00147591
0.000521305
-0.000321582
-0.000982956
-0.00130092
-0.000748304
0.000290918
0.00109974
0.00165695
0.00190128
0.00089499
-0.00234757
-0.00810448
-0.0169256
-0.029823
-0.0465279
-0.0647577
-0.0819393
-0.096057
-0.104471
-0.104023
-0.0934147
-0.0742352
-0.0493463
-0.0216956
0.00533999
0.0279716
0.0438898
0.0534891
0.0580632
0.0573242
0.0502511
0.0375845
0.0222533
0.00798392
-0.00197274
-0.0055729
-0.0026574
0.00453918
0.0118975
0.0156998
0.0145449
0.00887895
-0.000399127
-0.0126306
-0.0274696
-0.0443048
-0.0622514
-0.0804282
-0.0973953
-0.110935
-0.118611
-0.118611
-0.110935
-0.0973958
-0.0804286
-0.0622513
-0.0443038
-0.0274676
-0.0126284
-0.000397498
0.00887967
0.014545
0.0156997
0.0118973
0.00453864
-0.0026587
-0.00557512
-0.00197553
0.00798133
0.0222518
0.0375847
0.050253
0.0573271
0.0580666
0.0534926
0.0438934
0.027975
0.00534306
-0.0216934
-0.0493451
-0.0742353
-0.0934162
-0.104026
-0.104475
-0.0960618
-0.0819444
-0.0647623
-0.0465313
-0.0298249
-0.016926
-0.00810374
-0.002346
0.000897205
0.00190389
0.00165965
0.00110214
0.000292682
-0.000747367
-0.00130069
-0.000983068
-0.000321669
-0.00106696
-0.00322824
-0.0051254
-0.00631511
-0.0071239
-0.00824305
-0.00983549
-0.0119817
-0.0153165
-0.0203703
-0.0271188
-0.0359989
-0.0481192
-0.0635229
-0.0802891
-0.096057
-0.108846
-0.11613
-0.115014
-0.104469
-0.0861891
-0.0629169
-0.0372365
-0.0120684
0.00910479
0.0241075
0.0333468
0.0379618
0.0373792
0.0303938
0.0177855
0.00273941
-0.0108337
-0.0199389
-0.023075
-0.0203546
-0.0137552
-0.00665229
-0.00196323
-0.000859369
-0.00341347
-0.00967741
-0.0198028
-0.0335798
-0.0499207
-0.0674059
-0.0849803
-0.101386
-0.114607
-0.122188
-0.122188
-0.114608
-0.101386
-0.08498
-0.0674049
-0.049919
-0.0335775
-0.0198008
-0.00967613
-0.00341311
-0.000859606
-0.00196364
-0.00665277
-0.0137561
-0.0203562
-0.0230775
-0.0199418
-0.0108362
0.00273793
0.0177854
0.030395
0.0373812
0.0379641
0.0333494
0.0241107
0.00910855
-0.0120643
-0.0372326
-0.0629137
-0.0861871
-0.104468
-0.115015
-0.116133
-0.108851
-0.0960618
-0.0802939
-0.063527
-0.0481223
-0.0360012
-0.0271202
-0.0203705
-0.0153153
-0.0119793
-0.00983243
-0.0082401
-0.00712167
-0.00631379
-0.00512482
-0.00322807
-0.00106693
-0.00150601
-0.00462945
-0.00778092
-0.0106501
-0.0133796
-0.0164042
-0.0198411
-0.0237224
-0.0284823
-0.0344731
-0.0416308
-0.0502703
-0.0613681
-0.0751543
-0.0901843
-0.104471
-0.11613
-0.122758
-0.121722
-0.112164
-0.0957027
-0.0748447
-0.0517772
-0.0289051
-0.00929826
0.00500952
0.0142922
0.0193906
0.0194631
0.013209
0.00142504
-0.0126019
-0.0249299
-0.0328794
-0.0354903
-0.0331376
-0.0275234
-0.0212277
-0.0162815
-0.0135044
-0.0133389
-0.0166607
-0.0244147
-0.0366356
-0.0518943
-0.0682636
-0.0844274
-0.099277
-0.111183
-0.118021
-0.118022
-0.111183
-0.0992768
-0.0844264
-0.0682618
-0.0518919
-0.0366332
-0.0244129
-0.0166598
-0.0133389
-0.0135049
-0.0162821
-0.0212284
-0.0275245
-0.0331395
-0.0354928
-0.032882
-0.0249321
-0.0126031
0.0014249
0.0132096
0.0194641
0.0193919
0.014294
0.00501212
-0.0092946
-0.0289006
-0.0517724
-0.07484
-0.0956987
-0.112161
-0.121721
-0.122759
-0.116133
-0.104475
-0.0901889
-0.0751591
-0.0613726
-0.0502743
-0.041634
-0.0344749
-0.0284823
-0.0237209
-0.0198386
-0.0164014
-0.0133771
-0.0106482
-0.00777959
-0.00462861
-0.00150572
-0.00173183
-0.00538613
-0.0093681
-0.0135254
-0.0177837
-0.0222085
-0.026728
-0.0312405
-0.0360564
-0.0416173
-0.048116
-0.0558532
-0.0655841
-0.0776204
-0.0909701
-0.104023
-0.115014
-0.121722
-0.121785
-0.11437
-0.100816
-0.0832964
-0.0635988
-0.0435602
-0.0257234
-0.0119756
-0.00233918
0.00355509
0.00456842
-0.000643018
-0.0112571
-0.0239439
-0.0347951
-0.0414765
-0.043597
-0.0418334
-0.0376199
-0.0326979
-0.0281341
-0.0242843
-0.02182
-0.0223218
-0.0275107
-0.0377664
-0.0514442
-0.0661249
-0.0801371
-0.0924906
-0.102124
-0.107595
-0.107595
-0.102124
-0.09249
-0.0801355
-0.0661223
-0.0514414
-0.037764
-0.0275091
-0.0223213
-0.0218202
-0.0242849
-0.0281348
-0.0326987
-0.0376211
-0.0418352
-0.0435992
-0.0414786
-0.0347966
-0.0239446
-0.0112572
-0.000642814
0.00456871
0.0035555
-0.00233828
-0.0119737
-0.0257202
-0.0435557
-0.0635934
-0.0832905
-0.100811
-0.114366
-0.121782
-0.121721
-0.115015
-0.104026
-0.0909743
-0.0776255
-0.0655896
-0.0558585
-0.0481205
-0.0416204
-0.0360579
-0.0312406
-0.0267268
-0.0222065
-0.0177814
-0.0135231
-0.00936602
-0.00538463
-0.00173127
-0.00195201
-0.00602953
-0.0104946
-0.0153165
-0.0202476
-0.025033
-0.029424
-0.0331893
-0.03657
-0.0402334
-0.0448115
-0.0507528
-0.0586816
-0.0689838
-0.0810182
-0.0934147
-0.104469
-0.112164
-0.11437
-0.110118
-0.100303
-0.086747
-0.07091
-0.0540705
-0.0381753
-0.0249577
-0.0148561
-0.00810675
-0.00618396
-0.0104507
-0.0200293
-0.0315304
-0.0410699
-0.0466488
-0.0484602
-0.0475403
-0.0451057
-0.0420762
-0.0385377
-0.0342994
-0.0301085
-0.0280971
-0.0307076
-0.0387382
-0.0504481
-0.0629582
-0.0741734
-0.0832062
-0.0897278
-0.0932853
-0.0932854
-0.0897277
-0.0832052
-0.0741712
-0.0629551
-0.0504449
-0.0387359
-0.0307064
-0.028097
-0.030109
-0.0343001
-0.0385384
-0.0420769
-0.0451068
-0.0475419
-0.0484619
-0.0466502
-0.0410707
-0.0315307
-0.0200293
-0.0104507
-0.0061842
-0.00810701
-0.014856
-0.0249565
-0.0381727
-0.0540664
-0.0709044
-0.0867405
-0.100296
-0.110112
-0.114366
-0.112161
-0.104468
-0.0934162
-0.0810215
-0.0689885
-0.0586873
-0.0507587
-0.0448168
-0.0402378
-0.0365732
-0.0331913
-0.0294247
-0.0250324
-0.020246
-0.0153143
-0.0104924
-0.00602787
-0.00195139
-0.00218651
-0.00659305
-0.0111177
-0.0157634
-0.0201789
-0.0239512
-0.0268149
-0.0285291
-0.0293229
-0.0300899
-0.0319113
-0.0354863
-0.0414561
-0.0503284
-0.0616952
-0.0742352
-0.0861891
-0.0957027
-0.100816
-0.100303
-0.0945377
-0.0850378
-0.0730615
-0.0594308
-0.0455185
-0.0329079
-0.0224844
-0.0151085
-0.0125637
-0.0162059
-0.0250905
-0.0357576
-0.0443214
-0.0490743
-0.0507805
-0.0509011
-0.0505349
-0.0498595
-0.0480006
-0.0441348
-0.0389044
-0.0348173
-0.0349689
-0.0406367
-0.0500958
-0.060049
-0.0679352
-0.0729705
-0.0756987
-0.0768993
-0.0768994
-0.0756985
-0.0729692
-0.0679326
-0.0600455
-0.0500925
-0.0406346
-0.0349682
-0.0348176
-0.038905
-0.0441355
-0.0480012
-0.0498601
-0.0505357
-0.0509021
-0.0507815
-0.0490748
-0.0443214
-0.0357573
-0.0250903
-0.0162061
-0.0125643
-0.0151093
-0.0224849
-0.0329075
-0.0455166
-0.0594273
-0.0730562
-0.0850312
-0.0945305
-0.100296
-0.100811
-0.0956987
-0.0861871
-0.0742353
-0.0616973
-0.0503323
-0.0414613
-0.0354921
-0.0319171
-0.0300952
-0.0293275
-0.0285328
-0.0268174
-0.0239522
-0.0201786
-0.0157621
-0.0111162
-0.00659191
-0.00218609
-0.00233286
-0.0068184
-0.0109205
-0.014556
-0.017303
-0.0187629
-0.0188579
-0.0175057
-0.015001
-0.0124235
-0.011218
-0.0123392
-0.0165357
-0.0244743
-0.0358884
-0.0493463
-0.0629169
-0.0748447
-0.0832964
-0.086747
-0.0850378
-0.0794212
-0.0710554
-0.0604364
-0.0484555
-0.0365804
-0.0261233
-0.018491
-0.0156775
-0.0189998
-0.0274762
-0.0376042
-0.0454792
-0.0496327
-0.0513784
-0.0526739
-0.0546142
-0.0567157
-0.0571514
-0.0543669
-0.0487241
-0.0429551
-0.0407582
-0.043949
-0.050924
-0.0580255
-0.0622195
-0.0628337
-0.0613629
-0.059949
-0.059949
-0.0613625
-0.0628321
-0.0622166
-0.0580218
-0.0509208
-0.0439471
-0.0407577
-0.0429555
-0.0487248
-0.0543674
-0.0571517
-0.056716
-0.0546146
-0.0526743
-0.0513785
-0.0496323
-0.0454784
-0.0376034
-0.0274759
-0.0190001
-0.0156784
-0.0184922
-0.0261243
-0.0365806
-0.0484543
-0.0604335
-0.0710508
-0.0794152
-0.0850312
-0.0867405
-0.0832905
-0.07484
-0.0629137
-0.0493451
-0.0358892
-0.024477
-0.0165399
-0.0123444
-0.0112238
-0.0124293
-0.0150064
-0.0175105
-0.0188617
-0.0187654
-0.0173042
-0.0145563
-0.0109205
-0.00681828
-0.00233281
-0.00238651
-0.00676973
-0.0102105
-0.0124086
-0.0128376
-0.0112102
-0.00776509
-0.00269829
0.00353848
0.00966056
0.0139183
0.015142
0.0124654
0.00506655
-0.00686678
-0.0216956
-0.0372365
-0.0517772
-0.0635988
-0.07091
-0.0730615
-0.0710554
-0.0659649
-0.0580263
-0.0477521
-0.0365804
-0.0262592
-0.0186549
-0.0158631
-0.0191374
-0.0274974
-0.0374142
-0.0449308
-0.0487608
-0.0507458
-0.0533998
-0.0579102
-0.0632034
-0.0665057
-0.0654439
-0.0599487
-0.0528502
-0.0484087
-0.0490313
-0.0533471
-0.057439
-0.0578508
-0.0540256
-0.0483797
-0.0443751
-0.044375
-0.0483792
-0.0540239
-0.0578477
-0.0574354
-0.053344
-0.0490295
-0.0484083
-0.0528506
-0.0599492
-0.0654441
-0.0665057
-0.0632033
-0.0579101
-0.0533995
-0.0507451
-0.0487596
-0.0449295
-0.0374132
-0.027497
-0.0191379
-0.0158644
-0.0186566
-0.0262608
-0.0365812
-0.0477517
-0.0580244
-0.0659616
-0.0710508
-0.0730562
-0.0709044
-0.0635934
-0.0517724
-0.0372326
-0.0216934
-0.0068663
0.00506527
0.0124625
0.0151379
0.0139133
0.00965502
0.0035329
-0.00270354
-0.00776973
-0.011214
-0.0128406
-0.0124109
-0.0102121
-0.00677078
-0.00238689
-0.00240951
-0.00668658
-0.00954511
-0.0103748
-0.00848252
-0.00369707
0.00342559
0.0123894
0.022502
0.0321885
0.0393885
0.0427554
0.0413455
0.0342363
0.0216009
0.00533999
-0.0120684
-0.0289051
-0.0435602
-0.0540705
-0.0594308
-0.0604364
-0.0580263
-0.052158
-0.0430436
-0.0322068
-0.0218777
-0.0143372
-0.0117214
-0.0152172
-0.0238549
-0.0340439
-0.0416996
-0.0456336
-0.04816
-0.0523771
-0.0596679
-0.0684875
-0.0751756
-0.0764843
-0.0717731
-0.0638278
-0.0573936
-0.0554921
-0.0571026
-0.0582059
-0.055045
-0.0471875
-0.0378352
-0.0315552
-0.031555
-0.0378345
-0.0471857
-0.055042
-0.0582024
-0.0570997
-0.0554904
-0.0573932
-0.063828
-0.0717732
-0.0764842
-0.0751752
-0.068487
-0.0596672
-0.052376
-0.0481585
-0.0456319
-0.0416981
-0.0340429
-0.0238548
-0.015218
-0.011723
-0.0143393
-0.0218797
-0.0322082
-0.0430441
-0.0521573
-0.0580244
-0.0604335
-0.0594273
-0.0540664
-0.0435557
-0.0289006
-0.0120643
0.00534306
0.0216027
0.0342367
0.0413444
0.0427529
0.0393848
0.0321838
0.0224968
0.012384
0.00342021
-0.00370221
-0.00848726
-0.0103789
-0.00954829
-0.0066886
-0.0024102
-0.0022654
-0.00617558
-0.00836196
-0.00792624
-0.00400611
0.00350111
0.0138272
0.0262364
0.0397565
0.052467
0.0620107
0.0669149
0.0662239
0.059013
0.0455319
0.0279716
0.00910479
-0.00929826
-0.0257234
-0.0381753
-0.0455185
-0.0484555
-0.0477521
-0.0430436
-0.0342822
-0.0231409
-0.012346
-0.0045772
-0.00201864
-0.00582251
-0.0150285
-0.0259295
-0.0342214
-0.0386885
-0.042003
-0.0478422
-0.05791
-0.0703766
-0.080825
-0.0851286
-0.081958
-0.0738887
-0.0659995
-0.0618684
-0.0609042
-0.0591838
-0.0528582
-0.0416662
-0.0293966
-0.0213724
-0.0213722
-0.0293957
-0.0416643
-0.0528553
-0.0591806
-0.0609016
-0.0618669
-0.065999
-0.0738886
-0.0819578
-0.085128
-0.0808241
-0.0703755
-0.0579087
-0.0478405
-0.0420011
-0.0386866
-0.0342201
-0.0259289
-0.0150289
-0.0058238
-0.00202066
-0.0045796
-0.0123484
-0.0231428
-0.0342834
-0.0430441
-0.0477517
-0.0484543
-0.0455166
-0.0381727
-0.0257202
-0.0092946
0.00910854
0.027975
0.0455348
0.0590151
0.0662248
0.0669144
0.0620088
0.0524637
0.039752
0.026231
0.0138213
0.00349495
-0.00401219
-0.00793171
-0.00836621
-0.00617822
-0.00226628
-0.0016414
-0.004285
-0.00510589
-0.0030879
0.00269835
0.0123401
0.0249995
0.0397893
0.0554902
0.0699141
0.0805342
0.085843
0.0849467
0.0770357
0.0625309
0.0438898
0.0241075
0.00500952
-0.0119756
-0.0249577
-0.0329079
-0.0365804
-0.0365804
-0.0322068
-0.0231409
-0.0111499
0.000622869
0.00912172
0.0120575
0.00823255
-0.00145178
-0.0131794
-0.0223735
-0.0276518
-0.0318833
-0.0392621
-0.051902
-0.0678792
-0.0822062
-0.0899612
-0.0890827
-0.0817747
-0.0732244
-0.0674
-0.0641524
-0.0598717
-0.0509002
-0.0372439
-0.0230479
-0.0139513
-0.0139509
-0.0230466
-0.0372417
-0.0508973
-0.0598688
-0.06415
-0.0673986
-0.0732238
-0.0817743
-0.0890821
-0.0899602
-0.0822048
-0.0678776
-0.0519001
-0.0392601
-0.0318813
-0.0276502
-0.0223726
-0.0131795
-0.00145279
0.00823071
0.012055
0.00911894
0.000620151
-0.0111523
-0.0231428
-0.0322082
-0.0365812
-0.0365806
-0.0329075
-0.0249565
-0.0119737
0.00501212
0.0241106
0.0438934
0.0625347
0.0770393
0.0849495
0.0858446
0.0805342
0.0699124
0.0554868
0.0397844
0.0249936
0.0123337
0.00269181
-0.00309381
-0.00511047
-0.00428781
-0.00164233
-0.000392609
-0.000548699
0.00104714
0.00528832
0.0130132
0.024325
0.0384175
0.0543084
0.0706205
0.0851026
0.0952749
0.0997064
0.0976361
0.088481
0.0728902
0.0534891
0.0333468
0.0142922
-0.00233918
-0.0148561
-0.0224844
-0.0261233
-0.0262592
-0.0218777
-0.012346
0.000622869
0.0136301
0.0233031
0.0271864
0.0239186
0.0142174
0.00190431
-0.00820235
-0.0144614
-0.0197609
-0.0286609
-0.043652
-0.0628365
-0.0808671
-0.0922181
-0.094173
-0.0884639
-0.0801306
-0.0732843
-0.0681693
-0.061704
-0.0507388
-0.0356607
-0.0207085
-0.0113288
-0.0113282
-0.0207069
-0.0356584
-0.0507362
-0.0617015
-0.0681673
-0.0732831
-0.0801298
-0.0884632
-0.094172
-0.0922168
-0.0808654
-0.0628346
-0.04365
-0.0286589
-0.0197593
-0.0144604
-0.00820225
0.00190344
0.0142157
0.0239161
0.0271835
0.0233
0.0136271
0.000620148
-0.0123484
-0.0218797
-0.0262608
-0.0261244
-0.0224849
-0.014856
-0.00233829
0.014294
0.0333494
0.0534926
0.0728945
0.0884856
0.0976403
0.0997096
0.0952766
0.0851025
0.0706185
0.0543046
0.0384124
0.0243192
0.0130072
0.00528294
0.00104296
-0.000551312
-0.000393489
0.00137694
0.00473756
0.00966407
0.0167362
0.0265739
0.0392898
0.0541229
0.0700066
0.0855253
0.0985981
0.10699
0.109436
0.105391
0.0945968
0.0779367
0.0580632
0.0379618
0.0193906
0.00355509
-0.00810675
-0.0151085
-0.018491
-0.0186549
-0.0143372
-0.0045772
0.00912172
0.0233031
0.0343867
0.0397223
0.0376698
0.028614
0.0162166
0.00541185
-0.00189547
-0.00844859
-0.0189369
-0.0360667
-0.0579938
-0.0792151
-0.0938722
-0.0987909
-0.095227
-0.0878451
-0.0806258
-0.07412
-0.0659646
-0.0538169
-0.038533
-0.0241439
-0.0153563
-0.0153556