/*--------------------------------*- C++ -*----------------------------------*\
  =========                 |
  \\      /  F ield         | OpenFOAM: The Open Source CFD Toolbox
   \\    /   O peration     | Website:  https://openfoam.org
    \\  /    A nd           | Version:  10
     \\/     M anipulation  |
\*---------------------------------------------------------------------------*/
FoamFile
{
    format      ascii;
    class       volScalarField;
    location    "20";
    object      h;
}
// * * * * * * * * * * * * * * * * * * * * * * * * * * * * * * * * * * * * * //

dimensions      [0 1 0 0 0 0 0];

internalField   nonuniform List<scalar> 
10000
(
-0.00323108
-0.0114248
-0.0230217
-0.0357916
-0.0447367
-0.0456165
-0.03804
-0.0256987
-0.013725
-0.00539544
-0.000613462
0.00300508
0.00754736
0.0128045
0.0164285
0.0160245
0.0112615
0.00417927
-0.00231564
-0.00621795
-0.00710412
-0.00566995
-0.00290678
0.000434978
0.00393776
0.00732729
0.0102648
0.012295
0.0129488
0.0119055
0.00912063
0.00485894
-0.000368357
-0.00592406
-0.011178
-0.0156144
-0.0188937
-0.0208686
-0.0215628
-0.0211287
-0.0197979
-0.0178357
-0.0155045
-0.0130401
-0.0106391
-0.00845478
-0.00660003
-0.00515296
-0.00416409
-0.00366296
-0.00366301
-0.00416425
-0.00515326
-0.00660053
-0.00845553
-0.0106402
-0.0130416
-0.0155065
-0.0178382
-0.0198009
-0.0211321
-0.0215665
-0.0208724
-0.0188973
-0.0156174
-0.0111801
-0.00592504
-0.000368044
0.0048605
0.0091232
0.0119087
0.0129521
0.0122979
0.010267
0.00732874
0.00393841
0.000434826
-0.00290784
-0.00567206
-0.00710722
-0.00622146
-0.00231839
0.00417855
0.0112633
0.016028
0.0164319
0.0128062
0.00754747
0.00300498
-0.000612294
-0.0053929
-0.0137227
-0.0256987
-0.0380434
-0.0456222
-0.0447421
-0.0357943
-0.0230213
-0.0114229
-0.00323009
-0.0114248
-0.0377316
-0.0703122
-0.103288
-0.125137
-0.1268
-0.108108
-0.0775884
-0.0465067
-0.0221439
-0.00501956
0.00874032
0.0223582
0.0348871
0.0420295
0.0402142
0.0299331
0.0154909
0.00206739
-0.00695168
-0.0106604
-0.00982721
-0.00583217
-8.99701e-06
0.00653731
0.0128352
0.0179636
0.0211149
0.0217372
0.0196626
0.0151531
0.0088302
0.00152888
-0.00587366
-0.0126084
-0.0181119
-0.0220647
-0.0243802
-0.0251595
-0.0246325
-0.0230984
-0.0208753
-0.0182647
-0.0155286
-0.0128804
-0.0104832
-0.00845518
-0.0068771
-0.00580063
-0.00525564
-0.00525569
-0.00580079
-0.00687741
-0.00845568
-0.010484
-0.0128815
-0.0155302
-0.0182668
-0.020878
-0.0231017
-0.0246364
-0.0251638
-0.0243848
-0.0220692
-0.0181159
-0.0126114
-0.00587537
0.00152878
0.00883181
0.0151562
0.019667
0.0217421
0.0211197
0.0179676
0.0128379
0.00653838
-9.6904e-06
-0.00583471
-0.00983156
-0.0106662
-0.00695788
0.00206257
0.0154895
0.0299363
0.0402209
0.0420368
0.0348922
0.0223605
0.00874182
-0.00501637
-0.0221387
-0.0465025
-0.0775893
-0.108116
-0.126814
-0.12515
-0.103296
-0.0703128
-0.0377284
-0.0114229
-0.0230217
-0.0703122
-0.118082
-0.159151
-0.183382
-0.184391
-0.163538
-0.128548
-0.0888148
-0.0511436
-0.0183104
0.00937937
0.0314551
0.0462762
0.0524744
0.0507136
0.0434954
0.0335152
0.0226693
0.0123744
0.004038
-0.0012012
-0.00301755
-0.00203146
0.000513859
0.00328678
0.00536994
0.00647411
0.00683293
0.00694541
0.00729794
0.00817213
0.00958866
0.0113516
0.0131465
0.0146486
0.0156022
0.0158625
0.0154029
0.0142937
0.0126724
0.0107086
0.00857643
0.00643448
0.00441432
0.00261739
0.00111583
-4.21606e-05
-0.000827312
-0.00122336
-0.00122335
-0.00082727
-4.20637e-05
0.00111602
0.00261772
0.00441485
0.00643526
0.0085775
0.01071
0.0126741
0.0142956
0.015405
0.0158646
0.015604
0.0146501
0.0131474
0.011352
0.00958846
0.00817158
0.00729736
0.00694511
0.00683314
0.00647482
0.00537083
0.00328727
0.000513353
-0.00203332
-0.00302063
-0.00120489
0.00403455
0.0123719
0.0226681
0.0335156
0.0434978
0.0507182
0.052481
0.0462833
0.0314614
0.00938445
-0.0183062
-0.0511402
-0.0888137
-0.128551
-0.163548
-0.184405
-0.183398
-0.159163
-0.118088
-0.0703128
-0.0230213
-0.0357916
-0.103288
-0.159151
-0.197898
-0.217285
-0.218057
-0.202471
-0.173276
-0.133877
-0.0887589
-0.0434267
-0.00380065
0.0253106
0.042503
0.0505749
0.0539874
0.0551388
0.0534238
0.0475713
0.0379992
0.0267733
0.0160912
0.00726412
0.000645222
-0.0039987
-0.00697266
-0.00833172
-0.00794502
-0.00570147
-0.00168186
0.00374616
0.00997569
0.0162933
0.0220162
0.0266102
0.029753
0.0313373
0.0314438
0.0302852
0.0281488
0.0253474
0.0221777
0.0189002
0.0157245
0.0128104
0.0102705
0.00817992
0.00658461
0.00551058
0.00497094
0.00497094
0.00551059
0.00658466
0.00818006
0.0102708
0.0128109
0.0157254
0.0189015
0.0221795
0.0253498
0.0281518
0.0302887
0.0314477
0.0313414
0.0297571
0.0266138
0.0220189
0.0162949
0.00997592
0.00374503
-0.00168415
-0.00570455
-0.00794845
-0.00833514
-0.00697589
-0.00400174
0.000642322
0.00726153
0.0160894
0.0267731
0.038001
0.0475747
0.0534276
0.055142
0.0539903
0.0505792
0.0425097
0.0253187
-0.00379369
-0.0434229
-0.0887589
-0.13388
-0.173282
-0.20248
-0.218068
-0.217298
-0.197911
-0.159163
-0.103296
-0.0357943
-0.0447367
-0.125137
-0.183382
-0.217285
-0.232647
-0.235542
-0.227488
-0.206728
-0.172362
-0.127106
-0.0776242
-0.0325457
0.00172376
0.0245296
0.0397973
0.0511691
0.0591444
0.0626576
0.0616095
0.0569773
0.0495353
0.0396675
0.0281538
0.0163972
0.00603563
-0.0014962
-0.0054554
-0.00601761
-0.00403244
-0.000657094
0.0029954
0.00613329
0.00836221
0.00963311
0.0101383
0.0101713
0.0100225
0.00992188
0.0100033
0.0103196
0.0108556
0.0115565
0.0123517
0.0131684
0.0139474
0.0146409
0.0152191
0.0156622
0.0159612
0.0161113
0.0161113
0.0159612
0.0156622
0.0152191
0.0146409
0.0139473
0.0131682
0.0123514
0.0115561
0.0108552
0.0103191
0.0100028
0.00992165
0.0100226
0.0101718
0.0101393
0.00963441
0.00836364
0.00613448
0.00299586
-0.000657828
-0.00403464
-0.00602122
-0.00545995
-0.00150083
0.00603187
0.016395
0.0281535
0.0396689
0.0495378
0.0569806
0.0616136
0.0626623
0.0591488
0.0511727
0.039801
0.0245347
0.00173023
-0.0325402
-0.0776222
-0.127108
-0.172368
-0.206735
-0.227495
-0.23555
-0.232656
-0.217298
-0.183398
-0.12515
-0.0447421
-0.0456165
-0.1268
-0.184391
-0.218057
-0.235542
-0.243176
-0.24164
-0.228142
-0.200427
-0.159983
-0.113307
-0.0691612
-0.0329966
-0.00472668
0.0177493
0.0350559
0.0472972
0.0559976
0.0629106
0.0676876
0.0683194
0.0636938
0.0546969
0.0433286
0.0317654
0.0216717
0.0136824
0.00764313
0.00309392
-0.000469693
-0.00335901
-0.00564222
-0.00725794
-0.00809168
-0.00805785
-0.00716561
-0.00549946
-0.00321497
-0.000508413
0.00242808
0.00540705
0.0082852
0.0109468
0.0133195
0.0153588
0.0170458
0.0183788
0.019364
0.0200129
0.0203344
0.0203344
0.020013
0.0193642
0.0183792
0.0170462
0.0153591
0.0133197
0.0109468
0.008285
0.00540653
0.00242719
-0.000509711
-0.00321666
-0.00550149
-0.00716787
-0.00806019
-0.00809394
-0.00725996
-0.00564394
-0.00336048
-0.000471082
0.00309238
0.00764128
0.0136803
0.0216697
0.0317643
0.0433292
0.0546996
0.0636983
0.0683246
0.067692
0.0629136
0.0560001
0.0473
0.0350591
0.0177523
-0.00472347
-0.0329927
-0.0691577
-0.113306
-0.159986
-0.200434
-0.228149
-0.241647
-0.243182
-0.23555
-0.218068
-0.184405
-0.126814
-0.0456223
-0.03804
-0.108108
-0.163538
-0.202471
-0.227488
-0.24164
-0.246028
-0.239049
-0.218287
-0.185014
-0.14585
-0.107845
-0.0733619
-0.0419461
-0.014566
0.00731252
0.0248463
0.0406203
0.0549987
0.0659071
0.0719618
0.0738161
0.0724676
0.0682832
0.0615353
0.0524693
0.0414844
0.0295701
0.017962
0.00776515
-0.000175676
-0.00550081
-0.00831249
-0.00899775
-0.00812518
-0.00628748
-0.00397689
-0.00159018
0.000633905
0.0025602
0.00413893
0.00538929
0.00634099
0.00705756
0.00757982
0.00796058
0.00822758
0.00841077
0.00852359
0.00857814
0.00857817
0.00852367
0.00841092
0.0082278
0.00796087
0.00758018
0.007058
0.00634148
0.00538981
0.00413941
0.00256056
0.000634006
-0.00159048
-0.00397777
-0.00628908
-0.00812759
-0.00900097
-0.00831636
-0.00550498
-0.00017965
0.00776195
0.0179601
0.0295698
0.0414857
0.0524718
0.0615385
0.0682869
0.0724716
0.0738205
0.0719668
0.0659119
0.055002
0.0406217
0.0248468
0.00731336
-0.014565
-0.0419453
-0.0733608
-0.107843
-0.145848
-0.185016
-0.218293
-0.239056
-0.246035
-0.241647
-0.227496
-0.20248
-0.163548
-0.108116
-0.0380434
-0.0256987
-0.0775884
-0.128548
-0.173276
-0.206728
-0.228142
-0.239049
-0.238958
-0.226685
-0.204916
-0.178612
-0.149231
-0.115597
-0.0798569
-0.0472042
-0.0201503
0.00243719
0.0212876
0.0355547
0.0457345
0.0545752
0.063767
0.0720861
0.0775868
0.0790483
0.0758584
0.0686403
0.0589219
0.0481255
0.0374981
0.0279135
0.0197199
0.0130107
0.00770395
0.00357947
0.000452548
-0.00186689
-0.00356032
-0.00473168
-0.00552313
-0.00599964
-0.00625364
-0.00634172
-0.00631463
-0.00622346
-0.00609248
-0.00596147
-0.00584086
-0.00575521
-0.00570829
-0.00570834
-0.00575533
-0.00584106
-0.00596176
-0.00609285
-0.00622391
-0.00631516
-0.00634232
-0.00625432
-0.00600041
-0.00552397
-0.00473262
-0.00356138
-0.00186808
0.000451176
0.0035779
0.00770219
0.0130088
0.0197181
0.0279119
0.0374972
0.0481258
0.0589237
0.0686438
0.0758633
0.0790538
0.0775918
0.0720898
0.063769
0.0545763
0.0457361
0.0355573
0.02129
0.00243845
-0.0201497
-0.047204
-0.0798578
-0.115599
-0.149233
-0.178612
-0.204917
-0.226689
-0.238965
-0.239056
-0.228149
-0.206735
-0.173282
-0.128551
-0.0775894
-0.0256987
-0.013725
-0.0465067
-0.0888148
-0.133877
-0.172362
-0.200427
-0.218287
-0.226685
-0.227835
-0.224332
-0.213743
-0.190026
-0.153298
-0.112246
-0.07516
-0.0444912
-0.0204562
-0.00363534
0.00746247
0.0173507
0.0293886
0.0425659
0.0546017
0.0648833
0.0729251
0.0782328
0.0810989
0.0814296
0.0789739
0.073979
0.0667412
0.057785
0.0479032
0.03779
0.0280601
0.0192412
0.0115605
0.00517709
7.24477e-05
-0.00388343
-0.0067981
-0.00890543
-0.0103235
-0.0112609
-0.0118179
-0.0121344
-0.0122837
-0.0123429
-0.0123558
-0.0123551
-0.0123551
-0.0123561
-0.0123434
-0.0122843
-0.0121354
-0.011819
-0.0112623
-0.0103251
-0.00890729
-0.00680015
-0.00388562
7.0235e-05
0.00517498
0.0115587
0.0192399
0.0280595
0.0377903
0.0479045
0.0577873
0.0667444
0.0739828
0.078978
0.0814337
0.0811028
0.0782365
0.0729286
0.0648862
0.0546038
0.0425666
0.0293874
0.0173487
0.00746203
-0.00363349
-0.0204533
-0.0444885
-0.075158
-0.112246
-0.153301
-0.190033
-0.213748
-0.224334
-0.227837
-0.226689
-0.218293
-0.200434
-0.172368
-0.13388
-0.0888137
-0.0465026
-0.0137227
-0.00539544
-0.0221439
-0.0511436
-0.0887589
-0.127106
-0.159983
-0.185014
-0.204916
-0.224332
-0.240467
-0.241478
-0.220136
-0.18339
-0.143348
-0.106209
-0.0739785
-0.0487202
-0.0306549
-0.0164582
-0.00279973
0.00971546
0.0193883
0.0279545
0.0375644
0.0479447
0.0588702
0.0696787
0.0786032
0.0848019
0.087915
0.0877044
0.0846372
0.0793192
0.0722994
0.0643149
0.055926
0.0475374
0.0396233
0.032305
0.0258253
0.0201966
0.0154217
0.0114923
0.00827456
0.00575816
0.0037816
0.00233315
0.0012878
0.000635467
0.000311268
0.000311181
0.000635204
0.00128737
0.00233254
0.00378082
0.00575723
0.0082735
0.0114911
0.0154204
0.0201954
0.0258243
0.0323042
0.0396228
0.0475375
0.0559268
0.0643163
0.0723018
0.0793225
0.0846413
0.0877091
0.08792
0.0848065
0.0786071
0.0696813
0.0588713
0.0479447
0.0375638
0.0279539
0.0193884
0.0097159
-0.00280038
-0.0164594
-0.0306548
-0.0487182
-0.0739758
-0.106207
-0.143346
-0.183392
-0.220143
-0.241488
-0.240474
-0.224334
-0.204917
-0.185016
-0.159986
-0.127108
-0.0887589
-0.0511402
-0.0221388
-0.00539292
-0.000613462
-0.00501956
-0.0183104
-0.0434267
-0.0776242
-0.113307
-0.14585
-0.178612
-0.213743
-0.241478
-0.248734
-0.235132
-0.210095
-0.179461
-0.14503
-0.110653
-0.0804256
-0.0550338
-0.0335115
-0.016864
-0.00689117
-0.000974843
0.00555349
0.0131116
0.0212251
0.0308392
0.0409572
0.0507672
0.060469
0.0692569
0.0766687
0.0826025
0.0866421
0.0887302
0.089105
0.0877763
0.0851659
0.0815833
0.0772357
0.0726161
0.0677489
0.0630631
0.0585519
0.054462
0.050822
0.0477202
0.0452093
0.0432946
0.0420215
0.0413762
0.0413763
0.0420215
0.0432948
0.0452096
0.0477206
0.0508224
0.0544626
0.0585528
0.0630643
0.0677504
0.0726178
0.0772378
0.0815857
0.0851686
0.0877792
0.0891081
0.0887333
0.0866452
0.0826053
0.076671
0.0692588
0.0604703
0.0507679
0.0409574
0.0308385
0.0212237
0.0131102
0.00555197
-0.000975514
-0.00688963
-0.0168613
-0.0335098
-0.0550333
-0.0804253
-0.110653
-0.145031
-0.179462
-0.210097
-0.235136
-0.248743
-0.241488
-0.213748
-0.178612
-0.145848
-0.113306
-0.0776222
-0.043423
-0.0183062
-0.00501639
-0.000612295
0.00300508
0.00874032
0.00937937
-0.00380065
-0.0325457
-0.0691612
-0.107845
-0.149231
-0.190026
-0.220136
-0.235132
-0.239189
-0.23332
-0.214067
-0.183221
-0.147696
-0.112874
-0.0815029
-0.0556765
-0.0375068
-0.0258412
-0.0159197
-0.00710546
-0.00151965
0.00306616
0.00807633
0.0129038
0.0191728
0.0271279
0.0359413
0.0457595
0.0559172
0.0656079
0.0746123
0.0824093
0.08856
0.0932746
0.0961708
0.097656
0.0978167
0.0968476
0.0952382
0.0929645
0.0906148
0.0880865
0.0858468
0.0838083
0.0822555
0.0811409
0.0805906
0.0805907
0.0811411
0.082256
0.083809
0.0858478
0.0880878
0.0906165
0.0929665
0.0952406
0.0968503
0.0978198
0.0976594
0.0961742
0.0932781
0.0885631
0.0824121
0.0746144
0.0656092
0.0559177
0.045759
0.03594
0.0271262
0.0191708
0.0129021
0.0080753
0.00306548
-0.00151951
-0.00710468
-0.0159194
-0.0258404
-0.0375042
-0.0556733
-0.0815011
-0.112874
-0.147697
-0.183224
-0.214072
-0.233324
-0.239193
-0.235136
-0.220143
-0.190033
-0.149233
-0.107843
-0.0691577
-0.0325402
-0.00379372
0.00938442
0.00874181
0.00300499
0.00754736
0.0223582
0.0314551
0.0253106
0.00172376
-0.0329966
-0.0733619
-0.115597
-0.153298
-0.18339
-0.210095
-0.23332
-0.243478
-0.234549
-0.210683
-0.179118
-0.145854
-0.114913
-0.0884541
-0.0673242
-0.0489934
-0.0322714
-0.0209045
-0.0139655
-0.00780241
-0.00378511
-0.000926365
0.002969
0.00693296
0.0117077
0.0178477
0.0245669
0.031865
0.0396286
0.0470407
0.0541949
0.0608544
0.0665581
0.0718723
0.0760932
0.0798989
0.082882
0.0853624
0.0873597
0.0888396
0.0900696
0.0908627
0.0915118
0.0918485
0.0920489
0.0920489
0.0918487
0.0915122
0.0908632
0.0900702
0.0888402
0.0873604
0.0853632
0.0828829
0.0798998
0.076094
0.0718732
0.0665589
0.0608552
0.0541954
0.047041
0.0396286
0.0318645
0.0245661
0.0178466
0.0117063
0.00693164
0.0029679
-0.000927294
-0.00378506
-0.00780172
-0.0139646
-0.0209024
-0.0322694
-0.0489929
-0.067324
-0.0884533
-0.114913
-0.145855
-0.17912
-0.210688
-0.234555
-0.243485
-0.233324
-0.210097
-0.183392
-0.153301
-0.115599
-0.0733608
-0.0329927
0.00173021
0.0253186
0.0314614
0.0223605
0.00754746
0.0128045
0.0348871
0.0462762
0.042503
0.0245296
-0.00472668
-0.0419461
-0.0798569
-0.112246
-0.143348
-0.179461
-0.214067
-0.234549
-0.236643
-0.223659
-0.20145
-0.175744
-0.149119
-0.123547
-0.100207
-0.0776419
-0.0583868
-0.0443543
-0.0311664
-0.0199137
-0.0130252
-0.00718002
-0.00303214
-0.00112008
0.000699397
0.00199595
0.00304324
0.0048754
0.0073762
0.0105321
0.0151259
0.0201815
0.0261766
0.0326658
0.0390289
0.0457564
0.0516118
0.0574809
0.0622564
0.066686
0.0701137
0.0729768
0.0750053
0.0763889
0.0770566
0.0770567
0.0763892
0.0750057
0.0729772
0.0701143
0.0666865
0.0622568
0.0574811
0.0516117
0.045756
0.0390281
0.0326646
0.026175
0.0201795
0.0151238
0.0105299
0.00737422
0.00487376
0.00304201
0.00199544
0.000699368
-0.00111967
-0.00303094
-0.00717875
-0.0130237
-0.0199116
-0.031165
-0.0443533
-0.0583853
-0.0776415
-0.100208
-0.123548
-0.149121
-0.175746
-0.201452
-0.223663
-0.236648
-0.234555
-0.214072
-0.179462
-0.143346
-0.112246
-0.0798578
-0.0419453
-0.00472347
0.0245346
0.0425097
0.0462833
0.0348922
0.0128062
0.0164285
0.0420295
0.0524744
0.0505749
0.0397973
0.0177493
-0.014566
-0.0472042
-0.07516
-0.106209
-0.14503
-0.183221
-0.210683
-0.223659
-0.223069
-0.21279
-0.195256
-0.172444
-0.149628
-0.128249
-0.107599
-0.0906685
-0.0748277
-0.0579544
-0.0448836
-0.0336415
-0.0227756
-0.0157262
-0.0104359
-0.0064461
-0.00457366
-0.00315681
-0.00169634
-0.000511725
0.00133234
0.00377572
0.0060025
0.00927246
0.011847
0.0149876
0.0177267
0.0202597
0.0228476
0.0247384
0.0268818
0.0282129
0.0297205
0.0305279
0.0313012
0.031574
0.031574
0.0313012
0.0305278
0.0297204
0.0282128
0.0268817
0.0247383
0.0228476
0.0202596
0.0177266
0.0149874
0.0118467
0.00927214
0.00600186
0.00377505
0.00133149
-0.000512617
-0.00169691
-0.00315718
-0.00457348
-0.00644517
-0.0104348
-0.0157246
-0.0227737
-0.0336404
-0.0448825
-0.0579534
-0.0748281
-0.090669
-0.1076
-0.128251
-0.149631
-0.172447
-0.19526
-0.212793
-0.223072
-0.223663
-0.210688
-0.183224
-0.145031
-0.106207
-0.075158
-0.047204
-0.0145649
0.0177523
0.0398009
0.0505792
0.052481
0.0420368
0.0164319
0.0160245
0.0402142
0.0507136
0.0539874
0.0511691
0.0350559
0.00731252
-0.0201503
-0.0444912
-0.0739785
-0.110653
-0.147696
-0.179118
-0.20145
-0.21279
-0.211806
-0.198203
-0.179043
-0.162081
-0.146087
-0.131653
-0.119877
-0.105818
-0.0916583
-0.0791325
-0.0642143
-0.0507883
-0.0396651
-0.0284015
-0.0194605
-0.0121829
-0.00589369
-0.00150077
0.00103016
0.00280951
0.00266494
0.00195905
0.000945761
-0.00104305
-0.00185825
-0.00365337
-0.00396594
-0.00481886
-0.00470023
-0.0046857
-0.00434731
-0.00393642
-0.0036133
-0.00327498
-0.00314532
-0.00314546
-0.00327528
-0.00361388
-0.00393714
-0.00434828
-0.00468677
-0.00470144
-0.00482011
-0.00396708
-0.00365446
-0.00185891
-0.00104351
0.000945931
0.00195966
0.002666
0.00281113
0.00103182
-0.00149889
-0.00589186
-0.0121815
-0.0194591
-0.0284003
-0.0396645
-0.0507875
-0.0642142
-0.0791336
-0.0916593
-0.10582
-0.119879
-0.131654
-0.146088
-0.162082
-0.179044
-0.198206
-0.211811
-0.212793
-0.201452
-0.17912
-0.147697
-0.110653
-0.0739758
-0.0444885
-0.0201497
0.00731337
0.0350591
0.0511727
0.0539903
0.0507182
0.0402209
0.016028
0.0112615
0.0299331
0.0434954
0.0551388
0.0591444
0.0472972
0.0248463
0.00243719
-0.0204562
-0.0487202
-0.0804256
-0.112874
-0.145854
-0.175744
-0.195256
-0.198203
-0.187668
-0.175212
-0.164139
-0.152103
-0.143047
-0.135228
-0.12525
-0.116816
-0.106893
-0.0947789
-0.0842022
-0.0717984
-0.0590515
-0.0479488
-0.0372559
-0.028268
-0.021487
-0.0160459
-0.0116891
-0.00921505
-0.00614479
-0.00466736
-0.00267877
-0.00100314
6.02029e-05
0.00193456
0.00240988
0.00405995
0.0042594
0.00542016
0.00551305
0.00615868
0.0062009
0.00640311
0.00640311
0.006201
0.00615879
0.00551321
0.00542035
0.00425954
0.00406015
0.00240991
0.00193466
6.00878e-05
-0.00100321
-0.0026789
-0.00466752
-0.00614461
-0.00921486
-0.0116883
-0.0160449
-0.0214858
-0.0282665
-0.0372546
-0.047948
-0.059051
-0.0717987
-0.0842031
-0.0947796
-0.106894
-0.116818
-0.125252
-0.135231
-0.143049
-0.152105
-0.164141
-0.175212
-0.187668
-0.198206
-0.195259
-0.175746
-0.145855
-0.112874
-0.0804253
-0.0487182
-0.0204533
0.00243847
0.0248467
0.0473
0.0591488
0.0551419
0.0434977
0.0299363
0.0112633
0.00417927
0.0154909
0.0335152
0.0534238
0.0626576
0.0559976
0.0406203
0.0212876
-0.00363534
-0.0306549
-0.0550338
-0.0815029
-0.114913
-0.149119
-0.172444
-0.179043
-0.175212
-0.168299
-0.156749
-0.144212
-0.137215
-0.131833
-0.128002
-0.12692
-0.123343
-0.118865
-0.11301
-0.103926
-0.095031
-0.0852858
-0.0749195
-0.064804
-0.0548178
-0.0444212
-0.0350343
-0.0262497
-0.0178147
-0.0118919
-0.00550011
-0.00214009
0.00155852
0.00326929
0.00464764
0.00545844
0.00546096
0.00581296
0.0053411
0.00547177
0.0051064
0.00513719
0.00513727
0.00510655
0.00547211
0.00534152
0.00581365
0.00546175
0.00545955
0.00464891
0.0032708
0.00156026
-0.0021384
-0.00549822
-0.0118904
-0.0178133
-0.0262488
-0.0350339
-0.0444211
-0.0548182
-0.0648046
-0.0749202
-0.0852868
-0.0950321
-0.103927
-0.113012
-0.118868
-0.123345
-0.126922
-0.128003
-0.131834
-0.137215
-0.144213
-0.15675
-0.1683
-0.175212
-0.179044
-0.172447
-0.149121
-0.114913
-0.0815011
-0.0550333
-0.0306548
-0.00363347
0.02129
0.0406216
0.056
0.0626623
0.0534275
0.0335156
0.0154895
0.00417859
-0.00231564
0.00206739
0.0226693
0.0475713
0.0616095
0.0629106
0.0549987
0.0355547
0.00746247
-0.0164582
-0.0335115
-0.0556765
-0.0884541
-0.123547
-0.149628
-0.162081
-0.164139
-0.156749
-0.141129
-0.128419
-0.122839
-0.119507
-0.120504
-0.123484
-0.124214
-0.12501
-0.123989
-0.121382
-0.117825
-0.111892
-0.104586
-0.096052
-0.0869709
-0.0773629
-0.0691615
-0.0606581
-0.0539012
-0.0478405
-0.0420418
-0.038198
-0.0331841
-0.0306141
-0.0265635
-0.0245821
-0.0216384
-0.0200688
-0.0182073
-0.0171625
-0.0162736
-0.015905
-0.0159049
-0.0162737
-0.0171625
-0.0182074
-0.0200689
-0.0216385
-0.0245823
-0.0265636
-0.0306143
-0.033184
-0.038198
-0.0420414
-0.04784
-0.0539006
-0.0606574
-0.0691611
-0.0773626
-0.0869712
-0.0960529
-0.104587
-0.111894
-0.117827
-0.121384
-0.123991
-0.125012
-0.124215
-0.123486
-0.120505
-0.119508
-0.122838
-0.128417
-0.141129
-0.15675
-0.164141
-0.162082
-0.149631
-0.123548
-0.0884533
-0.0556734
-0.0335098
-0.0164594
0.00746205
0.0355573
0.0550019
0.0629136
0.0616136
0.0475747
0.0226681
0.00206261
-0.00231835
-0.00621795
-0.00695168
0.0123744
0.0379992
0.0569773
0.0676876
0.0659071
0.0457345
0.0173507
-0.00279973
-0.016864
-0.0375068
-0.0673242
-0.100207
-0.128249
-0.146087
-0.152103
-0.144212
-0.128419
-0.117111
-0.10933
-0.102864
-0.10261
-0.104666
-0.107449
-0.112946
-0.117504
-0.120722
-0.122468
-0.122458
-0.120992
-0.118826
-0.11569
-0.111642
-0.107491
-0.101428
-0.0960928
-0.0888249
-0.082325
-0.0752436
-0.0682778
-0.0623806
-0.0559685
-0.0515819
-0.0465089
-0.0435596
-0.0401712
-0.0384864
-0.0368182
-0.0362712
-0.0362711
-0.0368181
-0.0384862
-0.0401708
-0.0435593
-0.0465086
-0.0515817
-0.0559683
-0.0623808
-0.0682782
-0.0752443
-0.0823261
-0.0888262
-0.0960945
-0.10143
-0.107493
-0.111644
-0.115691
-0.118827
-0.120993
-0.12246
-0.12247
-0.120723
-0.117505
-0.112947
-0.107449
-0.104666
-0.10261
-0.102864
-0.109331
-0.117111
-0.128417
-0.144213
-0.152104
-0.146088
-0.128251
-0.100208
-0.067324
-0.0375042
-0.0168613
-0.00280036
0.0173487
0.0457361
0.0659119
0.0676919
0.0569806
0.038001
0.0123719
-0.00695784
-0.00622142
-0.00710412
-0.0106604
0.004038
0.0267733
0.0495353
0.0683194
0.0719618
0.0545752
0.0293886
0.00971546
-0.00689117
-0.0258412
-0.0489934
-0.0776419
-0.107599
-0.131653
-0.143047
-0.137215
-0.122839
-0.10933
-0.0939725
-0.0825856
-0.0809241
-0.0821864
-0.08697
-0.0947567
-0.10064
-0.106554
-0.112409
-0.116928
-0.120485
-0.123271
-0.123643
-0.123079
-0.121064
-0.117459
-0.114353
-0.109478
-0.106169
-0.101617
-0.098459
-0.0949502
-0.0920834
-0.0896592
-0.0872454
-0.0856943
-0.0839366
-0.0830685
-0.0821417
-0.0818608
-0.0818608
-0.0821417
-0.0830686
-0.0839366
-0.0856943
-0.0872454
-0.0896592
-0.0920834
-0.0949502
-0.098459
-0.101616
-0.106169
-0.109478
-0.114353
-0.11746
-0.121066
-0.123081
-0.123645
-0.123273
-0.120487
-0.116929
-0.11241
-0.106554
-0.100641
-0.0947575
-0.0869698
-0.0821858
-0.080923
-0.0825836
-0.0939721
-0.109331
-0.122838
-0.137215
-0.143049
-0.131654
-0.1076
-0.0776415
-0.0489929
-0.0258405
-0.00688962
0.00971592
0.0293874
0.0545762
0.0719667
0.0683245
0.0495378
0.0267731
0.00403458
-0.0106661
-0.00710721
-0.00566995
-0.00982721
-0.0012012
0.0160912
0.0396675
0.0636938
0.0738161
0.063767
0.0425659
0.0193883
-0.000974843
-0.0159197
-0.0322714
-0.0583868
-0.0906685
-0.119877
-0.135228
-0.131833
-0.119507
-0.102864
-0.0825856
-0.0709662
-0.0672582
-0.064187
-0.0666637
-0.0713654
-0.0759289
-0.0834279
-0.0904983
-0.0965
-0.102389
-0.10722
-0.110555
-0.114547
-0.117026
-0.119572
-0.122046
-0.122877
-0.124725
-0.124174
-0.124741
-0.12339
-0.122727
-0.12113
-0.11981
-0.118394
-0.117089
-0.116137
-0.115355
-0.115021
-0.115021
-0.115355
-0.116137
-0.11709
-0.118395
-0.119811
-0.121131
-0.122728
-0.123391
-0.124743
-0.124175
-0.124726
-0.122877
-0.122046
-0.119572
-0.117026
-0.114547
-0.110555
-0.107221
-0.102389
-0.0965004
-0.0904989
-0.0834279
-0.0759284
-0.0713655
-0.0666634
-0.0641868
-0.0672583
-0.0709645
-0.0825836
-0.102864
-0.119508
-0.131834
-0.135231
-0.119879
-0.090669
-0.0583853
-0.0322694
-0.0159194
-0.000975496
0.0193885
0.0425666
0.063769
0.0738205
0.0636982
0.0396689
0.0160894
-0.00120485
-0.00983152
-0.00567207
-0.00290678
-0.00583217
-0.00301755
0.00726412
0.0281538
0.0546969
0.0724676
0.0720861
0.0546017
0.0279545
0.00555349
-0.00710546
-0.0209045
-0.0443543
-0.0748277
-0.105818
-0.12525
-0.128002
-0.120504
-0.10261
-0.0809241
-0.0672582
-0.0554102
-0.0466191
-0.0471374
-0.0492995
-0.0537596
-0.0607601
-0.066438
-0.0727486
-0.0796368
-0.0859639
-0.0921488
-0.0988745
-0.103273
-0.108424
-0.111525
-0.113836
-0.116191
-0.116273
-0.117974
-0.117133
-0.118162
-0.117304
-0.117781
-0.117223
-0.117366
-0.117095
-0.117108
-0.117032
-0.117032
-0.117108
-0.117095
-0.117366
-0.117224
-0.117781
-0.117304
-0.118162
-0.117133
-0.117974
-0.116274
-0.116192
-0.113837
-0.111526
-0.108425
-0.103273
-0.0988753
-0.092149
-0.0859639
-0.0796368
-0.0727483
-0.0664379
-0.0607601
-0.053759
-0.0492989
-0.0471365
-0.0466173
-0.0554101
-0.0672584
-0.080923
-0.10261
-0.120505
-0.128003
-0.125252
-0.10582
-0.0748281
-0.0443533
-0.0209024
-0.00710468
0.005552
0.0279539
0.0546037
0.0720897
0.0724716
0.0546996
0.0281536
0.00726157
-0.00302059
-0.00583469
-0.00290786
0.000434978
-8.99701e-06
-0.00203146
0.000645222
0.0163972
0.0433286
0.0682832
0.0775868
0.0648833
0.0375644
0.0131116
-0.00151965
-0.0139655
-0.0311664
-0.0579544
-0.0916583
-0.116816
-0.12692
-0.123484
-0.104666
-0.0821864
-0.064187
-0.0466191
-0.0379812
-0.036941
-0.0351967
-0.0376263
-0.041611
-0.0454674
-0.0511305
-0.0570547
-0.0622064
-0.0676368
-0.0728111
-0.0763632
-0.081773
-0.0846334
-0.0894208
-0.0929061
-0.0963737
-0.100484
-0.102658
-0.106606
-0.107887
-0.110994
-0.111741
-0.113757
-0.11416
-0.115123
-0.115253
-0.115253
-0.115123
-0.114161
-0.113757
-0.111741
-0.110994
-0.107888
-0.106606
-0.102658
-0.100484
-0.0963734
-0.0929059
-0.0894205
-0.084633
-0.081773
-0.076363
-0.0728113
-0.067637
-0.0622064
-0.0570548
-0.0511303
-0.0454669
-0.0416109
-0.0376259
-0.0351964
-0.0369412
-0.0379797
-0.0466173
-0.0641868
-0.0821858
-0.104666
-0.123486
-0.126922
-0.116818
-0.0916593
-0.0579534
-0.031165
-0.0139646
-0.00151949
0.0131102
0.0375638
0.0648861
0.0775917
0.0682869
0.0433292
0.016395
0.000642365
-0.00203328
-9.68554e-06
0.000434796
0.00393776
0.00653731
0.000513859
-0.0039987
0.00603563
0.0317654
0.0615353
0.0790483
0.0729251
0.0479447
0.0212251
0.00306616
-0.00780241
-0.0199137
-0.0448836
-0.0791325
-0.106893
-0.123343
-0.124214
-0.107449
-0.08697
-0.0666637
-0.0471374
-0.036941
-0.0292964
-0.0237417
-0.0250492
-0.0265015
-0.0290702
-0.0331751
-0.036898
-0.0403491
-0.0452802
-0.0495072
-0.0540525
-0.0599432
-0.0633913
-0.0695659
-0.0724049
-0.0771939
-0.0799618
-0.082824
-0.0855418
-0.0868905
-0.0892557
-0.0897552
-0.0914659
-0.0916059
-0.0924918
-0.092516
-0.092516
-0.0924919
-0.0916059
-0.0914661
-0.0897553
-0.089256
-0.0868907
-0.0855422
-0.0828243
-0.0799622
-0.0771943
-0.0724051
-0.0695662
-0.0633911
-0.0599431
-0.0540521
-0.0495067
-0.0452799
-0.0403485
-0.0368977
-0.033175
-0.0290697
-0.0265012
-0.0250488
-0.0237406
-0.0292964
-0.0369412
-0.0471365
-0.0666635
-0.0869698
-0.107449
-0.124215
-0.123345
-0.106894
-0.0791336
-0.0448825
-0.0199117
-0.00780173
0.00306551
0.0212238
0.0479447
0.0729286
0.0790537
0.0615385
0.0317643
0.00603191
-0.0040017
0.000513379
0.00653837
0.00393837
0.00732729
0.0128352
0.00328678
-0.00697266
-0.0014962
0.0216717
0.0524693
0.0758584
0.0782328
0.0588702
0.0308392
0.00807633
-0.00378511
-0.0130252
-0.0336415
-0.0642143
-0.0947789
-0.118865
-0.12501
-0.112946
-0.0947567
-0.0713654
-0.0492995
-0.0351967
-0.0237417
-0.0191092
-0.0187174
-0.017436
-0.019115
-0.0212984
-0.0235361
-0.0264797
-0.0305184
-0.0329598
-0.036898
-0.0399502
-0.0420912
-0.0461613
-0.0470112
-0.0512543
-0.0520648
-0.0555634
-0.056913
-0.0593311
-0.0610104
-0.0624686
-0.0639603
-0.0647102
-0.0655709
-0.0657994
-0.0657993
-0.0655709
-0.06471
-0.0639603
-0.0624684
-0.0610102
-0.0593309
-0.0569127
-0.0555632
-0.0520645
-0.0512542
-0.0470109
-0.0461614
-0.0420912
-0.0399503
-0.0368981
-0.0329596
-0.0305184
-0.0264794
-0.0235356
-0.0212982
-0.0191147
-0.0174356
-0.0187175
-0.0191086
-0.0237406
-0.0351964
-0.0492989
-0.0713655
-0.0947575
-0.112947
-0.125012
-0.118867
-0.0947796
-0.0642142
-0.0336405
-0.0130238
-0.00378506
0.00807534
0.0308386
0.0588713
0.0782365
0.0758632
0.0524718
0.0216697
-0.00150079
-0.00697585
0.00328729
0.0128378
0.0073287
0.0102648
0.0179636
0.00536994
-0.00833172
-0.0054554
0.0136824
0.0414844
0.0686403
0.0810989
0.0696787
0.0409572
0.0129038
-0.000926365
-0.00718002
-0.0227756
-0.0507883
-0.0842022
-0.11301
-0.123989
-0.117504
-0.10064
-0.0759289
-0.0537596
-0.0376263
-0.0250492
-0.0187174
-0.0142184
-0.0122113
-0.0129535
-0.0134501
-0.0149279
-0.016485
-0.0184314
-0.0193037
-0.0222476
-0.0232562
-0.025977
-0.0285207
-0.0300527
-0.0339449
-0.0345585
-0.0386013
-0.0389803
-0.0422183
-0.042703
-0.0448358
-0.0453595
-0.0465035
-0.0468448
-0.0471979
-0.0471978
-0.0468448
-0.0465034
-0.0453595
-0.0448358
-0.042703
-0.0422183
-0.0389801
-0.0386013
-0.0345582
-0.0339447
-0.0300523
-0.0285203
-0.0259767
-0.0232556
-0.0222474
-0.0193034
-0.0184312
-0.016485
-0.0149278
-0.0134499
-0.0129534
-0.0122109
-0.0142181
-0.0187175
-0.0250489
-0.0376259
-0.053759
-0.0759285
-0.100641
-0.117505
-0.123991
-0.113012
-0.0842031
-0.0507875
-0.0227737
-0.00717877
-0.000927275
0.0129021
0.0409574
0.0696813
0.0811027
0.0686437
0.0414857
0.0136803
-0.00545991
-0.00833511
0.00537083
0.0179675
0.010267
0.012295
0.0211149
0.00647411
-0.00794502
-0.00601761
0.00764313
0.0295701
0.0589219
0.0814296
0.0786032
0.0507672
0.0191728
0.002969
-0.00303214
-0.0157262
-0.0396651
-0.0717984
-0.103926
-0.121382
-0.120722
-0.106554
-0.0834279
-0.0607601
-0.041611
-0.0265015
-0.017436
-0.0122113
-0.0102329
-0.0091034
-0.00913937
-0.00957569
-0.0101689
-0.0114671
-0.0122059
-0.014497
-0.0149197
-0.0175896
-0.0181886
-0.0200749
-0.0215058
-0.0221457
-0.0243192
-0.0241069
-0.0264139
-0.0259502
-0.0278301
-0.0274696
-0.0286427
-0.0284718
-0.0288646
-0.0288646
-0.0284718
-0.0286427
-0.0274695
-0.0278301
-0.0259501
-0.026414
-0.0241069
-0.0243194
-0.0221457
-0.0215058
-0.020075
-0.0181885
-0.0175897
-0.0149195
-0.0144969
-0.0122056
-0.0114668
-0.0101687
-0.00957557
-0.00913922
-0.00910327
-0.0102329
-0.0122109
-0.0174356
-0.0265012
-0.0416109
-0.0607601
-0.0834279
-0.106554
-0.120723
-0.121384
-0.103927
-0.0717987
-0.0396645
-0.0157247