/*--------------------------------*- C++ -*----------------------------------*\
  =========                 |
  \\      /  F ield         | OpenFOAM: The Open Source CFD Toolbox
   \\    /   O peration     | Website:  https://openfoam.org
    \\  /    A nd           | Version:  10
     \\/     M anipulation  |
\*---------------------------------------------------------------------------*/
FoamFile
{
    format      ascii;
    class       volScalarField;
    location    "20";
    object      h_0;
}
// * * * * * * * * * * * * * * * * * * * * * * * * * * * * * * * * * * * * * //

dimensions      [0 1 0 0 0 0 0];

internalField   nonuniform List<scalar> 
10000
(
-0.003226
-0.0114101
-0.02301
-0.0358218
-0.0448582
-0.0458452
-0.038328
-0.0259552
-0.013876
-0.0054348
-0.000602402
0.00299009
0.00747841
0.0127269
0.0164248
0.016146
0.0114859
0.00442573
-0.00213338
-0.00614697
-0.00714353
-0.00578964
-0.0030708
0.000255653
0.00376497
0.0071816
0.0101696
0.0122753
0.0130246
0.0120856
0.00939761
0.00520934
1.96757e-05
-0.00554024
-0.0108395
-0.0153561
-0.0187405
-0.0208343
-0.0216505
-0.0213329
-0.020107
-0.0182343
-0.015976
-0.0135685
-0.0112097
-0.00905552
-0.00722115
-0.00578706
-0.00480571
-0.00430798
-0.00430804
-0.00480588
-0.00578738
-0.00722167
-0.00905631
-0.0112109
-0.01357
-0.0159781
-0.0182369
-0.02011
-0.0213363
-0.0216542
-0.0208381
-0.0187441
-0.015359
-0.0108416
-0.00554113
2.00827e-05
0.00521098
0.00940023
0.0120888
0.0130279
0.0122781
0.0101718
0.00718301
0.00376557
0.000255453
-0.00307191
-0.0057918
-0.00714666
-0.00615047
-0.00213607
0.0044251
0.0114878
0.0161496
0.0164281
0.0127286
0.00747849
0.00299002
-0.00060119
-0.00543223
-0.0138737
-0.0259553
-0.0383315
-0.0458509
-0.0448636
-0.0358245
-0.0230095
-0.0114082
-0.00322501
-0.0114101
-0.0377045
-0.0703327
-0.103456
-0.125539
-0.12743
-0.108834
-0.0782185
-0.0469064
-0.0223167
-0.00508714
0.00864437
0.0222008
0.0347638
0.0420822
0.0405097
0.0304069
0.0159926
0.00245267
-0.00675946
-0.0106654
-0.00998868
-0.00609405
-0.00031619
0.00623529
0.0125859
0.0178108
0.0210934
0.0218656
0.019939
0.0155536
0.00931359
0.00204345
-0.00538144
-0.0121865
-0.0177975
-0.0218817
-0.0243391
-0.0252592
-0.0248632
-0.0234443
-0.0213178
-0.0187847
-0.0161082
-0.0135038
-0.0111374
-0.0091301
-0.0075651
-0.00649614
-0.00595454
-0.00595459
-0.00649631
-0.00756543
-0.00913064
-0.0111382
-0.013505
-0.0161098
-0.0187869
-0.0213206
-0.0234476
-0.0248671
-0.0252636
-0.0243436
-0.0218861
-0.0178014
-0.0121894
-0.00538304
0.00204347
0.00931531
0.0155569
0.0199434
0.0218705
0.0210981
0.0178147
0.0125885
0.00623627
-0.000316972
-0.00609667
-0.00999311
-0.0106712
-0.00676565
0.00244795
0.0159914
0.0304103
0.0405165
0.0420895
0.0347688
0.022203
0.00864588
-0.00508388
-0.0223115
-0.0469023
-0.0782195
-0.108842
-0.127444
-0.125552
-0.103464
-0.0703332
-0.0377012
-0.0114082
-0.02301
-0.0703327
-0.118263
-0.159603
-0.184111
-0.185282
-0.164418
-0.129277
-0.0893449
-0.0515138
-0.0185952
0.00913793
0.0312825
0.0462364
0.0526041
0.0509881
0.0438531
0.0338991
0.0230388
0.0126926
0.0042673
-0.00108486
-0.00301054
-0.00210295
0.000408663
0.00318812
0.00529918
0.00643044
0.00679976
0.00690123
0.00722686
0.00807014
0.00946471
0.0112246
0.0130402
0.0145861
0.0156021
0.0159364
0.015555
0.0145215
0.0129685
0.0110626
0.00897659
0.00686942
0.00487386
0.00309321
0.00160163
0.000449235
-0.00033313
-0.000728074
-0.000728059
-0.000333078
0.000449349
0.00160184
0.00309357
0.00487442
0.00687023
0.0089777
0.011064
0.0129702
0.0145235
0.0155571
0.0159385
0.0156039
0.0145875
0.0130411
0.0112249
0.00946447
0.00806957
0.00722627
0.00690095
0.00679999
0.00643117
0.00530006
0.00318859
0.000408117
-0.00210485
-0.00301365
-0.00108856
0.00426386
0.0126902
0.0230377
0.0338995
0.0438555
0.0509928
0.0526107
0.0462435
0.0312888
0.00914299
-0.0185909
-0.0515104
-0.0893439
-0.129281
-0.164428
-0.185296
-0.184126
-0.159614
-0.118269
-0.0703332
-0.0230095
-0.0358218
-0.103456
-0.159603
-0.198682
-0.218279
-0.219052
-0.203314
-0.173943
-0.134429
-0.0892618
-0.0438851
-0.00415848
0.0251135
0.0424621
0.050619
0.0540539
0.055239
0.053619
0.047897
0.038425
0.0272273
0.0165061
0.00760067
0.000890637
-0.00384366
-0.00690841
-0.00836473
-0.00808248
-0.00594336
-0.00201473
0.00335084
0.0095577
0.0158971
0.0216839
0.0263758
0.0296391
0.0313541
0.0315905
0.0305525
0.0285214
0.0258071
0.0227058
0.0194793
0.0163394
0.0134487
0.010923
0.00884
0.00724822
0.00617548
0.00563616
0.00563616
0.0061755
0.00724829
0.00884017
0.0109233
0.0134493
0.0163403
0.0194807
0.0227077
0.0258096
0.0285244
0.030556
0.0315945
0.0313582
0.0296431
0.0263794
0.0216866
0.0158986
0.00955784
0.00334962
-0.00201709
-0.00594649
-0.00808593
-0.00836815
-0.00691162
-0.00384668
0.000887759
0.00759812
0.0165044
0.0272272
0.0384268
0.0479005
0.0536228
0.0552421
0.0540568
0.0506233
0.0424689
0.0251216
-0.00415158
-0.0438814
-0.0892618
-0.134433
-0.173949
-0.203323
-0.219063
-0.218292
-0.198695
-0.159615
-0.103464
-0.0358245
-0.0448582
-0.125539
-0.184111
-0.218279
-0.23373
-0.236527
-0.228283
-0.207352
-0.172893
-0.127607
-0.078093
-0.0329241
0.00146755
0.0243534
0.0396383
0.0510274
0.0590828
0.0627296
0.0618167
0.0572939
0.049939
0.040134
0.0286404
0.0168455
0.00638604
-0.00128701
-0.00539889
-0.00609179
-0.00419301
-0.000852142
0.00281101
0.00598865
0.00826826
0.00958528
0.0101219
0.0101677
0.010014
0.00989486
0.00994958
0.0102363
0.010744
0.0114205
0.0121969
0.0130005
0.0137714
0.0144609
0.0150379
0.0154813
0.0157811
0.0159318
0.0159318
0.0157811
0.0154813
0.0150379
0.0144609
0.0137713
0.0130003
0.0121966
0.0114201
0.0107435
0.0102358
0.00994916
0.00989465
0.0100141
0.0101682
0.0101228
0.0095866
0.0082697
0.00598981
0.00281142
-0.000852941
-0.00419529
-0.00609546
-0.00540346
-0.00129164
0.00638233
0.0168434
0.0286402
0.0401354
0.0499415
0.0572973
0.0618209
0.0627343
0.0590873
0.051031
0.0396419
0.0243585
0.00147401
-0.0329186
-0.078091
-0.12761
-0.172899
-0.207359
-0.22829
-0.236535
-0.233739
-0.218292
-0.184126
-0.125552
-0.0448637
-0.0458452
-0.12743
-0.185282
-0.219052
-0.236527
-0.244089
-0.242441
-0.22881
-0.200979
-0.160449
-0.113686
-0.0694468
-0.0332282
-0.0049687
0.0174845
0.0348117
0.0471009
0.0558368
0.0627891
0.0676632
0.0684589
0.0640108
0.0551455
0.0438344
0.032255
0.0220976
0.0140312
0.00792278
0.00332003
-0.000284502
-0.00321185
-0.00553889
-0.00720872
-0.00810728
-0.00814526
-0.00732627
-0.00572945
-0.0035055
-0.000847991
0.00205221
0.00500734
0.00787258
0.0105303
0.0129056
0.014952
0.0166482
0.0179907
0.0189842
0.0196393
0.019964
0.019964
0.0196394
0.0189844
0.017991
0.0166485
0.0149523
0.0129058
0.0105303
0.00787234
0.00500678
0.00205127
-0.000849325
-0.00350722
-0.0057315
-0.00732855
-0.0081476
-0.00810952
-0.00721072
-0.00554059
-0.00321331
-0.00028588
0.0033185
0.00792093
0.0140291
0.0220957
0.032254
0.0438351
0.0551483
0.0640154
0.0684641
0.0676676
0.0627921
0.0558392
0.0471037
0.0348149
0.0174876
-0.0049655
-0.0332243
-0.0694433
-0.113685
-0.160452
-0.200986
-0.228817
-0.242448
-0.244095
-0.236535
-0.219063
-0.185296
-0.127444
-0.0458509
-0.038328
-0.108834
-0.164418
-0.203314
-0.228283
-0.242441
-0.246835
-0.239809
-0.21894
-0.185489
-0.146107
-0.107944
-0.0734504
-0.0421227
-0.0148274
0.00699181
0.0244573
0.0401752
0.0545807
0.0656182
0.0718449
0.0738593
0.0726542
0.0686023
0.0619734
0.0530083
0.0420891
0.0301859
0.0185306
0.00823516
0.000161277
-0.00530842
-0.00825616
-0.00905476
-0.00826475
-0.00647839
-0.00419154
-0.00180693
0.000429209
0.00237602
0.00397815
0.00525168
0.006224
0.00695768
0.00749339
0.00788407
0.00815815
0.00834596
0.00846161
0.00851745
0.00851748
0.00846169
0.00834611
0.00815837
0.00788436
0.00749376
0.00695812
0.0062245
0.00525219
0.00397862
0.00237635
0.000429281
-0.00180727
-0.00419246
-0.00648004
-0.00826722
-0.00905803
-0.00826006
-0.00531259
0.000157329
0.00823202
0.0185287
0.0301857
0.0420904
0.0530108
0.0619767
0.068606
0.0726583
0.0738638
0.0718499
0.065623
0.0545839
0.0401765
0.0244577
0.00699264
-0.0148263
-0.042122
-0.0734492
-0.107942
-0.146105
-0.185492
-0.218946
-0.239817
-0.246842
-0.242448
-0.22829
-0.203323
-0.164428
-0.108842
-0.0383315
-0.0259552
-0.0782185
-0.129277
-0.173943
-0.207352
-0.22881
-0.239809
-0.239774
-0.227407
-0.205358
-0.178733
-0.149203
-0.115627
-0.0800153
-0.0474697
-0.0205143
0.0019902
0.0208272
0.0351507
0.0453818
0.0542298
0.0634406
0.0718489
0.0775051
0.0791626
0.0761718
0.0691097
0.0594845
0.0487209
0.0380746
0.0284384
0.0201778
0.0133968
0.0080218
0.00383623
0.00065526
-0.00171033
-0.00344385
-0.00464985
-0.00547091
-0.00597345
-0.00624925
-0.0063564
-0.00634493
-0.00626701
-0.0061465
-0.0060238
-0.00590921
-0.00582756
-0.00578261
-0.00578265
-0.00582768
-0.00590942
-0.00602409
-0.00614687
-0.00626745
-0.00634545
-0.006357
-0.00624993
-0.00597421
-0.00547176
-0.00465079
-0.00344491
-0.00171153
0.000653882
0.00383466
0.00802004
0.0133949
0.020176
0.0284369
0.0380738
0.0487212
0.0594864
0.0691133
0.0761767
0.0791681
0.0775101
0.0718525
0.0634425
0.0542309
0.0453834
0.0351533
0.0208295
0.00199141
-0.0205138
-0.0474695
-0.0800162
-0.115629
-0.149204
-0.178733
-0.205359
-0.227411
-0.23978
-0.239817
-0.228817
-0.207359
-0.173949
-0.129281
-0.0782196
-0.0259553
-0.013876
-0.0469064
-0.0893449
-0.134429
-0.172893
-0.200979
-0.21894
-0.227407
-0.228427
-0.224629
-0.213825
-0.190106
-0.153464
-0.112458
-0.0753959
-0.044762
-0.0207335
-0.00388856
0.00718542
0.0169619
0.0288819
0.0420277
0.0541066
0.0644691
0.0726267
0.0780663
0.0810698
0.0815533
0.0792553
0.074409
0.0673011
0.0584411
0.0486146
0.0385169
0.028765
0.019895
0.0121444
0.00567892
0.00049012
-0.00354853
-0.00653935
-0.00871443
-0.0101912
-0.0111774
-0.0117748
-0.0121227
-0.0122965
-0.0123729
-0.0123973
-0.012402
-0.0124021
-0.0123975
-0.0123734
-0.0122972
-0.0121237
-0.0117759
-0.0111788
-0.0101929
-0.00871629
-0.00654139
-0.00355071
0.000487926
0.00567683
0.0121426
0.0198937
0.0287644
0.0385172
0.0486159
0.0584434
0.0673043
0.0744127
0.0792594
0.0815574
0.0810736
0.0780699
0.0726301
0.064472
0.0541086
0.0420283
0.0288807
0.0169599
0.00718503
-0.00388666
-0.0207306
-0.0447594
-0.0753939
-0.112458
-0.153467
-0.190112
-0.21383
-0.224631
-0.228429
-0.227411
-0.218946
-0.200986
-0.172899
-0.134433
-0.0893439
-0.0469023
-0.0138737
-0.0054348
-0.0223167
-0.0515138
-0.0892618
-0.127607
-0.160449
-0.185489
-0.205358
-0.224629
-0.240651
-0.241707
-0.220441
-0.18365
-0.143509
-0.106338
-0.0741197
-0.0488713
-0.0308484
-0.0167577
-0.00320219
0.00929219
0.0189767
0.0275053
0.0370593
0.0474075
0.0583291
0.0691959
0.0782453
0.0846056
0.0879044
0.0878816
0.0849829
0.0798078
0.0728992
0.06499
0.0566471
0.0482749
0.0403539
0.0330122
0.0264942
0.0208218
0.0159972
0.0120199
0.00875556
0.00619766
0.00418508
0.00270724
0.00163973
0.000972383
0.000640755
0.000640668
0.000972119
0.00163929
0.00270663
0.00418431
0.00619674
0.0087545
0.0120188
0.015996
0.0208206
0.0264931
0.0330114
0.0403535
0.048275
0.0566479
0.0649916
0.0729017
0.0798112
0.084987
0.0878863
0.0879093
0.0846102
0.0782492
0.0691985
0.0583301
0.0474075
0.0370586
0.0275046
0.0189769
0.00929261
-0.00320289
-0.0167589
-0.0308482
-0.0488693
-0.074117
-0.106335
-0.143508
-0.183652
-0.220448
-0.241717
-0.240658
-0.224631
-0.205359
-0.185492
-0.160452
-0.12761
-0.0892618
-0.0515104
-0.0223116
-0.00543225
-0.000602402
-0.00508714
-0.0185952
-0.0438851
-0.078093
-0.113686
-0.146107
-0.178733
-0.213825
-0.241707
-0.249118
-0.23545
-0.210209
-0.179473
-0.145083
-0.11079
-0.0806529
-0.0553558
-0.0338821
-0.0171825
-0.00712291
-0.0012165
0.00522804
0.0127179
0.0207599
0.0303093
0.0404076
0.050216
0.0599385
0.0687847
0.0762772
0.0823151
0.0864799
0.0886987
0.0892056
0.0880054
0.0855078
0.0820282
0.0777649
0.0732153
0.0684048
0.0637604
0.0592831
0.0552146
0.0515924
0.0485002
0.0459972
0.0440858
0.0428153
0.0421708
0.0421708
0.0428154
0.0440859
0.0459974
0.0485005
0.0515929
0.0552153
0.059284
0.0637616
0.0684062
0.0732171
0.077767
0.0820306
0.0855105
0.0880084
0.0892087
0.0887018
0.0864829
0.0823179
0.0762795
0.0687866
0.0599398
0.0502166
0.0404077
0.0303086
0.0207586
0.0127165
0.00522653
-0.00121712
-0.00712131
-0.0171799
-0.0338805
-0.0553554
-0.0806526
-0.11079
-0.145084
-0.179474
-0.210211
-0.235455
-0.249128
-0.241717
-0.21383
-0.178733
-0.146105
-0.113685
-0.078091
-0.0438814
-0.018591
-0.00508391
-0.000601192
0.00299009
0.00864437
0.00913793
-0.00415848
-0.0329241
-0.0694468
-0.107944
-0.149203
-0.190106
-0.220441
-0.23545
-0.239275
-0.23322
-0.213973
-0.183235
-0.147846
-0.113164
-0.0818817
-0.0560493
-0.037804
-0.0261078
-0.0162127
-0.00736863
-0.00173993
0.00281967
0.00779133
0.0125566
0.0187214
0.0265878
0.0353281
0.045092
0.0552378
0.064952
0.0740106
0.0818994
0.088162
0.0930048
0.0960425
0.0976622
0.0979603
0.0971105
0.0956123
0.0934316
0.0911601
0.0886959
0.0865047
0.0845047
0.0829773
0.0818803
0.0813379
0.081338
0.0818806
0.0829778
0.0845054
0.0865057
0.0886972
0.0911618
0.0934336
0.0956148
0.0971133
0.0979635
0.0976655
0.096046
0.0930083
0.0881651
0.0819021
0.0740126
0.0649532
0.0552382
0.0450915
0.0353268
0.0265861
0.0187194
0.0125549
0.00779032
0.00281902
-0.00173974
-0.00736784
-0.0162124
-0.0261069
-0.0378014
-0.0560462
-0.0818799
-0.113164
-0.147848
-0.183239
-0.213978
-0.233224
-0.239279
-0.235455
-0.220448
-0.190112
-0.149204
-0.107942
-0.0694433
-0.0329186
-0.0041516
0.00914296
0.00864587
0.00299002
0.00747841
0.0222008
0.0312825
0.0251135
0.00146755
-0.0332282
-0.0734504
-0.115627
-0.153464
-0.18365
-0.210209
-0.23322
-0.243294
-0.234376
-0.210569
-0.179119
-0.145993
-0.115175
-0.0887987
-0.0677287
-0.0494625
-0.0327081
-0.021213
-0.0142139
-0.00802203
-0.0039602
-0.00112745
0.00271872
0.00663505
0.0113296
0.0173961
0.0240575
0.0313038
0.039039
0.0464471
0.0536027
0.0602893
0.0660209
0.0713708
0.0756351
0.0794755
0.0825051
0.0850173
0.0870557
0.0885632
0.0898245
0.0906386
0.0913071
0.0916552
0.0918621
0.0918622
0.0916554
0.0913075
0.0906391
0.0898251
0.0885639
0.0870564
0.0850181
0.082506
0.0794764
0.075636
0.0713716
0.0660217
0.0602901
0.0536032
0.0464473
0.039039
0.0313032
0.0240566
0.017395
0.0113282
0.00663374
0.00271763
-0.00112836
-0.0039601
-0.00802132
-0.0142129
-0.0212108
-0.032706
-0.049462
-0.0677285
-0.0887978
-0.115174
-0.145993
-0.179121
-0.210574
-0.234382
-0.243301
-0.233224
-0.210211
-0.183652
-0.153467
-0.115629
-0.0734492
-0.0332243
0.001474
0.0251216
0.0312888
0.022203
0.00747848
0.0127269
0.0347638
0.0462364
0.0424621
0.0243534
-0.0049687
-0.0421227
-0.0800153
-0.112458
-0.143509
-0.179473
-0.213973
-0.234376
-0.236369
-0.223329
-0.201146
-0.175569
-0.14916
-0.1238
-0.100648
-0.0782029
-0.0589196
-0.0448499
-0.031654
-0.0202907
-0.0132996
-0.00740059
-0.00316622
-0.0012123
0.000610395
0.00190444
0.0029096
0.00466978
0.00709131
0.0101433
0.0146279
0.0195897
0.0254811
0.0319054
0.0382033
0.0448971
0.0507326
0.0565938
0.061381
0.0658186
0.0692703
0.0721462
0.0741951
0.0755876
0.0762631
0.0762632
0.0755878
0.0741955
0.0721466
0.0692708
0.0658191
0.0613814
0.056594
0.0507325
0.0448967
0.0382024
0.0319042
0.0254794
0.0195877
0.0146257
0.0101411
0.00708936
0.00466817
0.0029084
0.00190398
0.000610399
-0.00121186
-0.00316499
-0.00739931
-0.0132982
-0.0202886
-0.0316527
-0.0448489
-0.058918
-0.0782025
-0.10065
-0.123802
-0.149162
-0.175571
-0.201148
-0.223333
-0.236375
-0.234382
-0.213978
-0.179474
-0.143508
-0.112458
-0.0800162
-0.0421219
-0.0049655
0.0243585
0.0424689
0.0462435
0.0347688
0.0127286
0.0164248
0.0420822
0.0526041
0.050619
0.0396383
0.0174845
-0.0148274
-0.0474697
-0.0753959
-0.106338
-0.145083
-0.183235
-0.210569
-0.223329
-0.222537
-0.212185
-0.194795
-0.172233
-0.149652
-0.128511
-0.108017
-0.091159
-0.0754257
-0.0585575
-0.0454006
-0.0341335
-0.0231811
-0.0160161
-0.0106652
-0.00659985
-0.00468048
-0.00326357
-0.00181517
-0.000657177
0.00113186
0.00354322
0.00572499
0.00895819
0.0115178
0.0146218
0.017363
0.0198667
0.0224572
0.0243283
0.026469
0.0277886
0.0292904
0.030092
0.0308611
0.0311321
0.0311321
0.0308611
0.030092
0.0292904
0.0277885
0.0264689
0.0243282
0.0224572
0.0198666
0.0173629
0.0146217
0.0115175
0.00895786
0.00572433
0.00354254
0.001131
-0.000658062
-0.00181572
-0.00326392
-0.00468027
-0.00659889
-0.0106641
-0.0160144
-0.0231792
-0.0341324
-0.0453994
-0.0585565
-0.0754263
-0.0911595
-0.108018
-0.128513
-0.149654
-0.172236
-0.194798
-0.212188
-0.22254
-0.223333
-0.210574
-0.183239
-0.145084
-0.106335
-0.0753939
-0.0474695
-0.0148263
0.0174876
0.0396419
0.0506233
0.0526107
0.0420895
0.0164281
0.016146
0.0405097
0.0509881
0.0540539
0.0510274
0.0348117
0.00699181
-0.0205143
-0.044762
-0.0741197
-0.11079
-0.147846
-0.179119
-0.201146
-0.212185
-0.2111
-0.197589
-0.178538
-0.161735
-0.14598
-0.131726
-0.120147
-0.106287
-0.0921916
-0.0797509
-0.0648956
-0.0514093
-0.0402605
-0.0289476
-0.0199126
-0.0125643
-0.00618672
-0.001686
0.000935308
0.00279814
0.00274153
0.00206316
0.00109481
-0.000908565
-0.00174218
-0.00357166
-0.00394822
-0.00484103
-0.00479965
-0.00482213
-0.00454935
-0.00416664
-0.00388529
-0.00356212
-0.00344659
-0.00344673
-0.00356242
-0.00388587
-0.00416736
-0.00455031
-0.00482319
-0.00480084
-0.00484225
-0.00394933
-0.00357271
-0.0017428
-0.000908973
0.00109504
0.00206381
0.00274263
0.00279978
0.000936982
-0.00168411
-0.00618491
-0.0125628
-0.0199112
-0.0289465
-0.0402599
-0.0514085
-0.0648955
-0.079752
-0.0921926
-0.106289
-0.120149
-0.131728
-0.145981
-0.161736
-0.178539
-0.197592
-0.211104
-0.212188
-0.201148
-0.179121
-0.147848
-0.11079
-0.074117
-0.0447594
-0.0205138
0.00699264
0.0348149
0.051031
0.0540568
0.0509928
0.0405165
0.0161496
0.0114859
0.0304069
0.0438531
0.055239
0.0590828
0.0471009
0.0244573
0.0019902
-0.0207335
-0.0488713
-0.0806529
-0.113164
-0.145993
-0.175569
-0.194795
-0.197589
-0.186928
-0.174388
-0.163454
-0.151647
-0.14279
-0.13524
-0.125459
-0.117149
-0.107392
-0.0953369
-0.0848016
-0.0724683
-0.0596974
-0.0485629
-0.0378188
-0.0287422
-0.0218739
-0.0163729
-0.0119434
-0.0094351
-0.00635045
-0.00483883
-0.00287604
-0.00116589
-0.000128292
0.00177115
0.00224082
0.00390344
0.00411396
0.00527846
0.00538704
0.00603267
0.00608518
0.00628703
0.00628703
0.00608529
0.00603277
0.0053872
0.00527864
0.0041141
0.00390363
0.00224084
0.00177124
-0.000128421
-0.00116597
-0.00287617
-0.00483898
-0.00635026
-0.00943489
-0.0119427
-0.0163718
-0.0218726
-0.0287407
-0.0378175
-0.0485621
-0.0596968
-0.0724687
-0.0848025
-0.0953376
-0.107394
-0.117151
-0.125461
-0.135243
-0.142792
-0.151649
-0.163456
-0.174388
-0.186928
-0.197592
-0.194798
-0.175571
-0.145993
-0.113164
-0.0806526
-0.0488693
-0.0207306
0.00199142
0.0244577
0.0471037
0.0590872
0.0552421
0.0438555
0.0304102
0.0114878
0.00442573
0.0159926
0.0338991
0.053619
0.0627296
0.0558368
0.0401752
0.0208272
-0.00388856
-0.0308484
-0.0553558
-0.0818817
-0.115175
-0.14916
-0.172233
-0.178538
-0.174388
-0.167371
-0.155971
-0.143571
-0.136721
-0.131542
-0.127821
-0.126877
-0.123464
-0.119093
-0.113395
-0.104414
-0.0955776
-0.085909
-0.0755822
-0.0654986
-0.0555403
-0.0451572
-0.0357352
-0.026936
-0.0184143
-0.0124216
-0.00593961
-0.00246416
0.00130077
0.00313427
0.00455442
0.00546345
0.00549131
0.00590654
0.00544958
0.00561287
0.00525457
0.00529511
0.0052952
0.00525472
0.00561322
0.00545001
0.00590724
0.00549212
0.00546458
0.00455571
0.0031358
0.00130251
-0.00246248
-0.00593774
-0.0124201
-0.0184129
-0.0269351
-0.0357349
-0.0451571
-0.0555408
-0.0654992
-0.0755829
-0.0859101
-0.0955787
-0.104416
-0.113397
-0.119095
-0.123466
-0.126879
-0.127821
-0.131543
-0.136721
-0.143571
-0.155973
-0.167372
-0.174388
-0.178539
-0.172236
-0.149162
-0.115174
-0.0818799
-0.0553554
-0.0308482
-0.00388664
0.0208295
0.0401765
0.0558391
0.0627342
0.0536227
0.0338995
0.0159914
0.00442514
-0.00213338
0.00245267
0.0230388
0.047897
0.0618167
0.0627891
0.0545807
0.0351507
0.00718542
-0.0167577
-0.0338821
-0.0560493
-0.0887987
-0.1238
-0.149652
-0.161735
-0.163454
-0.155971
-0.140361
-0.12761
-0.122114
-0.118922
-0.120014
-0.123172
-0.124057
-0.124972
-0.124086
-0.121574
-0.118138
-0.112318
-0.105106
-0.0966436
-0.0876099
-0.0780071
-0.069788
-0.0612742
-0.0544551
-0.0483986
-0.0425423
-0.0387068
-0.0336709
-0.0310979
-0.0270581
-0.0250613
-0.0221425
-0.0205536
-0.0187149
-0.0176551
-0.0167789
-0.0164048
-0.0164047
-0.016779
-0.0176552
-0.018715
-0.0205537
-0.0221427
-0.0250615
-0.0270581
-0.031098
-0.0336708
-0.0387068
-0.0425419
-0.0483981
-0.0544545
-0.0612734
-0.0697876
-0.0780069
-0.0876102
-0.0966445
-0.105108
-0.11232
-0.11814
-0.121575
-0.124088
-0.124974
-0.124059
-0.123174
-0.120015
-0.118922
-0.122114
-0.127609
-0.14036
-0.155973
-0.163456
-0.161736
-0.149654
-0.123802
-0.0887978
-0.0560462
-0.0338805
-0.0167589
0.00718505
0.0351533
0.0545839
0.0627921
0.0618208
0.0479005
0.0230377
0.00244798
-0.00213603
-0.00614697
-0.00675946
0.0126926
0.038425
0.0572939
0.0676632
0.0656182
0.0453818
0.0169619
-0.00320219
-0.0171825
-0.037804
-0.0677287
-0.100648
-0.128511
-0.14598
-0.151647
-0.143571
-0.12761
-0.116215
-0.108575
-0.10224
-0.102068
-0.104251
-0.107079
-0.112617
-0.117263
-0.120567
-0.122411
-0.122491
-0.12111
-0.119012
-0.115966
-0.111988
-0.10794
-0.101968
-0.0967165
-0.0895503
-0.0830877
-0.076091
-0.0691211
-0.0632708
-0.0568351
-0.0524581
-0.0473602
-0.0443987
-0.0409922
-0.0392918
-0.0376145
-0.0370608
-0.0370607
-0.0376144
-0.0392915
-0.0409919
-0.0443984
-0.0473599
-0.052458
-0.056835
-0.0632711
-0.0691215
-0.0760917
-0.0830888
-0.0895515
-0.0967181
-0.10197
-0.107942
-0.111989
-0.115968
-0.119013
-0.121111
-0.122493
-0.122413
-0.120569
-0.117264
-0.112618
-0.107079
-0.104252
-0.102068
-0.10224
-0.108576
-0.116215
-0.127609
-0.143571
-0.151649
-0.145981
-0.128513
-0.10065
-0.0677285
-0.0378014
-0.0171799
-0.00320287
0.0169599
0.0453834
0.065623
0.0676675
0.0572972
0.0384268
0.0126902
-0.00676561
-0.00615043
-0.00714353
-0.0106654
0.0042673
0.0272273
0.049939
0.0684589
0.0718449
0.0542298
0.0288819
0.00929219
-0.00712291
-0.0261078
-0.0494625
-0.0782029
-0.108017
-0.131726
-0.14279
-0.136721
-0.122114
-0.108575
-0.0933539
-0.0819644
-0.0803137
-0.0816468
-0.0864254
-0.0942767
-0.100243
-0.106189
-0.112099
-0.116689
-0.120315
-0.123198
-0.123687
-0.123206
-0.121307
-0.117755
-0.114714
-0.109872
-0.106575
-0.102051
-0.0988751
-0.0953974
-0.0925066
-0.0901128
-0.0876824
-0.0861558
-0.0843904
-0.0835377
-0.0826086
-0.0823329
-0.082333
-0.0826087
-0.0835378
-0.0843905
-0.0861559
-0.0876824
-0.0901128
-0.0925065
-0.0953973
-0.098875
-0.102051
-0.106575
-0.109873
-0.114715
-0.117756
-0.121308
-0.123208
-0.123688
-0.123199
-0.120316
-0.116691
-0.1121
-0.106189
-0.100244
-0.0942775
-0.0864251
-0.0816462
-0.0803126
-0.0819624
-0.0933535
-0.108576
-0.122114
-0.136721
-0.142792
-0.131728
-0.108017
-0.0782025
-0.0494621
-0.026107
-0.0071213
0.00929263
0.0288807
0.0542308
0.0718498
0.0684641
0.0499415
0.0272272
0.0042639
-0.0106711
-0.00714665
-0.00578964
-0.00998868
-0.00108486
0.0165061
0.040134
0.0640108
0.0738593
0.0634406
0.0420277
0.0189767
-0.0012165
-0.0162127
-0.0327081
-0.0589196
-0.091159
-0.120147
-0.13524
-0.131542
-0.118922
-0.10224
-0.0819644
-0.070267
-0.0666739
-0.0637091
-0.0661922
-0.0709625
-0.075514
-0.0829886
-0.0900973
-0.0961212
-0.102034
-0.106917
-0.110273
-0.114279
-0.116808
-0.119355
-0.1219
-0.122767
-0.12469
-0.124216
-0.124846
-0.123589
-0.122974
-0.121464
-0.120176
-0.118825
-0.11754
-0.116625
-0.115853
-0.115531
-0.115531
-0.115853
-0.116625
-0.11754
-0.118825
-0.120177
-0.121465
-0.122975
-0.123591
-0.124847
-0.124217
-0.124691
-0.122768
-0.121901
-0.119355
-0.116808
-0.114279
-0.110273
-0.106917
-0.102035
-0.0961217
-0.0900978
-0.0829886
-0.0755135
-0.0709625
-0.066192
-0.0637089
-0.0666741
-0.0702653
-0.0819624
-0.10224
-0.118922
-0.131543
-0.135243
-0.120149
-0.0911595
-0.058918
-0.032706
-0.0162124
-0.0012171
0.0189769
0.0420283
0.0634425
0.0738638
0.0640153
0.0401354
0.0165045
-0.00108851
-0.00999307
-0.00579181
-0.0030708
-0.00609405
-0.00301054
0.00760067
0.0286404
0.0551455
0.0726542
0.0718489
0.0541066
0.0275053
0.00522804
-0.00736863
-0.021213
-0.0448499
-0.0754257
-0.106287
-0.125459
-0.127821
-0.120014
-0.102068
-0.0803137
-0.0666739
-0.055021
-0.0462292
-0.0467192
-0.0489181
-0.0533269
-0.0603351
-0.0660226
-0.0723038
-0.0791818
-0.0855164
-0.0916909
-0.0984557
-0.102908
-0.108089
-0.111293
-0.113622
-0.116068
-0.116172
-0.117917
-0.117106
-0.118141
-0.117317
-0.11778
-0.117251
-0.117379
-0.117126
-0.117131
-0.11706
-0.11706
-0.11713
-0.117126
-0.117379
-0.117252
-0.117781
-0.117317
-0.118142
-0.117107
-0.117918
-0.116172
-0.116069
-0.113623
-0.111294
-0.108091
-0.102909
-0.0984565
-0.0916911
-0.0855164
-0.0791818
-0.0723035
-0.0660224
-0.0603352
-0.0533263
-0.0489175
-0.0467183
-0.0462275
-0.0550209
-0.0666741
-0.0803126
-0.102068
-0.120015
-0.127821
-0.125461
-0.106289
-0.0754262
-0.044849
-0.0212109
-0.00736784
0.00522656
0.0275046
0.0541086
0.0718524
0.0726582
0.0551483
0.0286402
0.00759816
-0.00301361
-0.00609665
-0.00307193
0.000255653
-0.00031619
-0.00210295
0.000890637
0.0168455
0.0438344
0.0686023
0.0775051
0.0644691
0.0370593
0.0127179
-0.00173993
-0.0142139
-0.031654
-0.0585575
-0.0921916
-0.117149
-0.126877
-0.123172
-0.104251
-0.0816468
-0.0637091
-0.0462292
-0.0375272
-0.036579
-0.0349044
-0.0373013
-0.0413081
-0.0451339
-0.0507619
-0.0566813
-0.0618378
-0.0672473
-0.0724508
-0.0759784
-0.0813757
-0.0842426
-0.0889695
-0.0924923
-0.0958954
-0.100049
-0.102191
-0.106171
-0.107455
-0.110578
-0.111347
-0.113369
-0.113794
-0.114758
-0.114897
-0.114897
-0.114758
-0.113794
-0.113369
-0.111347
-0.110579
-0.107455
-0.106171
-0.102191
-0.100049
-0.0958951
-0.0924921
-0.0889693
-0.0842422
-0.0813757
-0.0759782
-0.072451
-0.0672475
-0.0618378
-0.0566814
-0.0507616
-0.0451334
-0.041308
-0.0373009
-0.0349041
-0.0365792
-0.0375257
-0.0462275
-0.0637089
-0.0816462
-0.104252
-0.123174
-0.126879
-0.117151
-0.0921926
-0.0585565
-0.0316527
-0.0142129
-0.00173973
0.0127165
0.0370587
0.0644719
0.07751
0.068606
0.0438351
0.0168434
0.000887802
-0.00210481
-0.000316966
0.000255423
0.00376497
0.00623529
0.000408663
-0.00384366
0.00638604
0.032255
0.0619734
0.0791626
0.0726267
0.0474075
0.0207599
0.00281967
-0.00802203
-0.0202907
-0.0454006
-0.0797509
-0.107392
-0.123464
-0.124057
-0.107079
-0.0864254
-0.0661922
-0.0467192
-0.036579
-0.0291045
-0.0235313
-0.0248112
-0.0262911
-0.0288162
-0.0329036
-0.0366184
-0.0400327
-0.0449124
-0.0491374
-0.0536096
-0.0595149
-0.0629387
-0.0691078
-0.0719899
-0.0767479
-0.0795929
-0.0824167
-0.0852065
-0.086526
-0.0889395
-0.0894234
-0.0911593
-0.0912934
-0.092189
-0.0922119
-0.0922119
-0.092189
-0.0912934
-0.0911594
-0.0894235
-0.0889399
-0.0865263
-0.0852069
-0.0824171
-0.0795932
-0.0767483
-0.07199
-0.0691081
-0.0629384
-0.0595148
-0.0536091
-0.0491369
-0.044912
-0.0400321
-0.0366181
-0.0329035
-0.0288156
-0.0262908
-0.0248108
-0.0235302
-0.0291045
-0.0365792
-0.0467183
-0.066192
-0.0864251
-0.107079
-0.124059
-0.123466
-0.107394
-0.079752
-0.0453995
-0.0202887
-0.00802133
0.00281905
0.0207586
0.0474075
0.0726301
0.079168
0.0619767
0.032254
0.00638237
-0.00384664
0.000408143
0.00623627
0.00376554
0.0071816
0.0125859
0.00318812
-0.00690841
-0.00128701
0.0220976
0.0530083
0.0761718
0.0780663
0.0583291
0.0303093
0.00779133
-0.0039602
-0.0132996
-0.0341335
-0.0648956
-0.0953369
-0.119093
-0.124972
-0.112617
-0.0942767
-0.0709625
-0.0489181
-0.0349044
-0.0235313
-0.0188643
-0.0185511
-0.0172886
-0.0189335
-0.0211203
-0.0233339
-0.0262384
-0.0302682
-0.0327147
-0.036608
-0.0397096
-0.0417906
-0.0458876
-0.0467068
-0.0509214
-0.0517413
-0.0551736
-0.056555
-0.0589018
-0.0606148
-0.0620178
-0.0635338
-0.0642512
-0.0651239
-0.065342
-0.0653419
-0.0651239
-0.0642511
-0.0635337
-0.0620176
-0.0606146
-0.0589015
-0.0565548
-0.0551734
-0.051741
-0.0509214
-0.0467065
-0.0458878
-0.0417906
-0.0397097
-0.0366082
-0.0327145
-0.0302683
-0.0262381
-0.0233334
-0.0211201
-0.0189332
-0.0172882
-0.0185512
-0.0188637
-0.0235302
-0.0349041
-0.0489175
-0.0709625
-0.0942775
-0.112618
-0.124974
-0.119095
-0.0953376
-0.0648955
-0.0341324
-0.0132982
-0.0039601
0.00779036
0.0303086
0.0583301
0.0780699
0.0761767
0.0530108
0.0220957
-0.0012916
-0.00691159
0.0031886
0.0125885
0.00718297
0.0101696
0.0178108
0.00529918
-0.00836473
-0.00539889
0.0140312
0.0420891
0.0691097
0.0810698
0.0691959
0.0404076
0.0125566
-0.00112745
-0.00740059
-0.0231811
-0.0514093
-0.0848016
-0.113395
-0.124086
-0.117263
-0.100243
-0.075514
-0.0533269
-0.0373013
-0.0248112
-0.0185511
-0.0141334
-0.0120991
-0.0128544
-0.0133478
-0.0148113
-0.0163551
-0.0183022
-0.0191459
-0.0220553
-0.0230705
-0.0257068
-0.0282882
-0.0297369
-0.0336554
-0.0342311
-0.0382669
-0.0386547
-0.0418611
-0.042378
-0.0444742
-0.0450303
-0.0461474
-0.0465076
-0.0468512
-0.0468511
-0.0465077
-0.0461474
-0.0450303
-0.0444742
-0.042378
-0.0418611
-0.0386545
-0.0382669
-0.0342307
-0.0336553
-0.0297364
-0.0282878
-0.0257064
-0.0230699
-0.0220552
-0.0191456
-0.0183021
-0.0163551
-0.0148111
-0.0133476
-0.0128544
-0.0120987
-0.0141331
-0.0185512
-0.0248108
-0.0373009
-0.0533263
-0.0755135
-0.100244
-0.117264
-0.124088
-0.113397
-0.0848025
-0.0514085
-0.0231792
-0.00739933
-0.00112834
0.0125549
0.0404077
0.0691984
0.0810735
0.0691132
0.0420904
0.0140291
-0.00540342
-0.00836812
0.00530007
0.0178147
0.0101718
0.0122753
0.0210934
0.00643044
-0.00808248
-0.00609179
0.00792278
0.0301859
0.0594845
0.0815533
0.0782453
0.050216
0.0187214
0.00271872
-0.00316622
-0.0160161
-0.0402605
-0.0724683
-0.104414
-0.121574
-0.120567
-0.106189
-0.0829886
-0.0603351
-0.0413081
-0.0262911
-0.0172886
-0.0120991
-0.0101477
-0.00904779
-0.0090686
-0.00951636
-0.0100807
-0.0113773
-0.0120831
-0.0143715
-0.0147844
-0.0174265
-0.0180589
-0.0198856
-0.0213725
-0.0219478
-0.0241655
-0.0239092
-0.0262333
-0.0257515
-0.027628
-0.0272657
-0.0284291
-0.0282608
-0.028649
-0.028649
-0.0282608
-0.0284291
-0.0272656
-0.027628
-0.0257515
-0.0262334
-0.0239092
-0.0241656
-0.0219478
-0.0213725
-0.0198858
-0.0180588
-0.0174265
-0.0147842
-0.0143714
-0.0120829
-0.011377
-0.0100805
-0.00951625
-0.00906845
-0.00904768
-0.0101477
-0.0120987
-0.0172882
-0.0262908
-0.041308
-0.0603352
-0.0829886
-0.106189
-0.120568
-0.121575
-0.104416
-0.0724687
-0.04026
-0.0160145
-0.003165