/*--------------------------------*- C++ -*----------------------------------*\
  =========                 |
  \\      /  F ield         | OpenFOAM: The Open Source CFD Toolbox
   \\    /   O peration     | Website:  https://openfoam.org
    \\  /    A nd           | Version:  10
     \\/     M anipulation  |
\*---------------------------------------------------------------------------*/
FoamFile
{
    format      ascii;
    class       volScalarField;
    location    "55";
    object      h;
}
// * * * * * * * * * * * * * * * * * * * * * * * * * * * * * * * * * * * * * //

dimensions      [0 1 0 0 0 0 0];

internalField   nonuniform List<scalar> 
10000
(
-0.000172392
-0.000431738
-0.000457935
-0.000254556
-0.000149768
-0.000457658
-0.000861741
-0.000630053
0.000420285
0.00147416
0.00168354
0.00130811
0.00139
0.00254117
0.00442702
0.00627991
0.00736193
0.00722112
0.00611244
0.00512974
0.00520103
0.00595627
0.006216
0.00518742
0.00290436
-0.000240074
-0.00373812
-0.00694183
-0.0095266
-0.0117266
-0.0137252
-0.0153201
-0.0161848
-0.0159782
-0.0144599
-0.0115721
-0.00758155
-0.00307239
0.00135773
0.00523699
0.00810747
0.00973076
0.0101513
0.0094978
0.00800614
0.00604218
0.00395353
0.00205591
0.00063139
-0.000130318
-0.000130037
0.000632187
0.0020571
0.00395493
0.0060436
0.00800741
0.00949882
0.010152
0.00973129
0.00810787
0.00523737
0.00135816
-0.00307191
-0.0075811
-0.0115718
-0.0144599
-0.0159788
-0.0161859
-0.0153217
-0.0137271
-0.0117287
-0.00952854
-0.00694336
-0.003739
-0.000240199
0.00290493
0.00518855
0.00621746
0.00595779
0.00520242
0.00513092
0.00611341
0.00722183
0.00736228
0.00627991
0.00442676
0.00254074
0.00138952
0.00130771
0.00168328
0.00147394
0.000420014
-0.000630327
-0.000861896
-0.000457677
-0.000149749
-0.000254578
-0.00045797
-0.000431744
-0.000172386
-0.000431738
-0.00104344
-0.000975511
-0.000254875
0.00015369
-0.000652041
-0.00174489
-0.00100862
0.00206681
0.00510445
0.00565558
0.00449259
0.00466764
0.00798576
0.0134809
0.0188833
0.0219918
0.0214787
0.0181129
0.0150912
0.0150966
0.0170388
0.0174745
0.0140907
0.00699866
-0.00258917
-0.0130973
-0.0225926
-0.0301201
-0.0363687
-0.0419118
-0.0462226
-0.0484042
-0.0475133
-0.042888
-0.0344
-0.0228449
-0.00990277
0.00272564
0.0137288
0.0218657
0.026522
0.0278792
0.02634
0.0225665
0.0175565
0.0122298
0.00739495
0.0037716
0.00183901
0.00183971
0.0037736
0.00739795
0.0122334
0.0175603
0.02257
0.026343
0.0278816
0.0265239
0.0218672
0.0137301
0.00272691
-0.00990163
-0.0228441
-0.0343998
-0.0428888
-0.0475153
-0.0484075
-0.0462271
-0.0419171
-0.0363744
-0.0301254
-0.0225968
-0.0130999
-0.00258968
0.00700006
0.0140936
0.0174784
0.0170429
0.0151003
0.0150945
0.0181158
0.0214809
0.0219931
0.0188836
0.0134804
0.00798474
0.00466646
0.00449165
0.005655
0.00510394
0.0020661
-0.00100939
-0.00174537
-0.00065216
0.000153668
-0.000255008
-0.000975676
-0.00104351
-0.000431742
-0.000457935
-0.000975511
-0.000444699
0.00103071
0.00190813
0.0008171
-0.000755021
0.000481451
0.00526928
0.00988365
0.0105552
0.00854225
0.00867798
0.0138509
0.0225564
0.0311161
0.0359022
0.0347929
0.0290917
0.023876
0.0233259
0.0257284
0.0256843
0.0195543
0.00752657
-0.00834322
-0.0253513
-0.0403881
-0.0519768
-0.0612398
-0.0691909
-0.0751697
-0.0778919
-0.0759692
-0.0684177
-0.0551105
-0.0373277
-0.0176346
0.00140022
0.0178714
0.0300726
0.0372455
0.0398012
0.0384309
0.0340926
0.02816
0.0218302
0.0160808
0.01178
0.00949853
0.00949935
0.0117823
0.0160844
0.0218347
0.0281649
0.0340976
0.0384357
0.0398056
0.0372495
0.030076
0.0178742
0.00140239
-0.0176333
-0.0373274
-0.0551116
-0.0684202
-0.0759732
-0.0778975
-0.0751765
-0.0691985
-0.0612477
-0.0519841
-0.040394
-0.025355
-0.00834432
0.00752809
0.019558
0.0256893
0.0257338
0.023331
0.0238807
0.029096
0.0347965
0.0359047
0.0311172
0.0225562
0.0138498
0.00867661
0.00854122
0.0105547
0.00988314
0.00526835
0.000480328
-0.000755776
0.000816844
0.00190801
0.00103043
-0.000445023
-0.000975676
-0.000457967
-0.000254556
-0.000254875
0.00103071
0.00334389
0.00466735
0.00336062
0.00141394
0.00299083
0.00894929
0.0145688
0.0151926
0.012507
0.012726
0.0195909
0.0311527
0.0424451
0.0484719
0.0464595
0.0383198
0.030743
0.029099
0.0312662
0.0303958
0.0218049
0.00568266
-0.0151699
-0.0369972
-0.0558223
-0.0699174
-0.0808512
-0.0901172
-0.0971017
-0.100261
-0.0978248
-0.0884853
-0.0721041
-0.0503147
-0.0262629
-0.00310329
0.0169065
0.031908
0.0411902
0.0454089
0.0454955
0.0425171
0.037925
0.032892
0.0282545
0.0247703
0.0229402
0.0229409
0.0247722
0.0282575
0.0328961
0.03793
0.0425228
0.0455017
0.0454152
0.0411964
0.0319136
0.016911
-0.00310017
-0.0262616
-0.0503154
-0.0721069
-0.0884899
-0.0978311
-0.100268
-0.0971099
-0.0901258
-0.0808597
-0.0699252
-0.0558288
-0.0370015
-0.0151715
0.00568377
0.0218084
0.0304008
0.0312719
0.0291046
0.0307483
0.038325
0.0464644
0.0484757
0.0424472
0.0311531
0.01959
0.0127247
0.012506
0.0151922
0.0145683
0.00894827
0.00298952
0.00141305
0.00336035
0.0046673
0.00334367
0.00103043
-0.000255012
-0.000254576
-0.000149768
0.00015369
0.00190813
0.00466735
0.00611549
0.00460491
0.00255144
0.00459864
0.0115401
0.0180472
0.019043
0.0164945
0.0174076
0.0260171
0.0400249
0.053364
0.0598214
0.0562142
0.0452253
0.0349241
0.0315911
0.0330067
0.0314994
0.0216352
0.0033919
-0.019976
-0.0439382
-0.064136
-0.0789844
-0.090524
-0.100701
-0.109027
-0.113691
-0.112441
-0.103476
-0.0864977
-0.0632765
-0.0372119
-0.0118149
0.0104134
0.0276019
0.0390951
0.045657
0.0483305
0.0481187
0.0463379
0.043978
0.0415927
0.0397286
0.0387727
0.0387731
0.0397298
0.0415948
0.0439811
0.0463423
0.0481242
0.0483371
0.0456643
0.0391026
0.0276089
0.0104192
-0.0118111
-0.0372105
-0.0632779
-0.0865016
-0.103482
-0.112449
-0.1137
-0.109036
-0.10071
-0.0905321
-0.0789918
-0.0641423
-0.0439427
-0.019978
0.00339242
0.021638
0.0315038
0.0330119
0.0315964
0.0349295
0.0452311
0.0562201
0.0598264
0.0533673
0.040026
0.0260166
0.0174064
0.0164935
0.0190424
0.0180466
0.0115389
0.00459711
0.00255036
0.00460458
0.00611552
0.00466729
0.001908
0.000153661
-0.000149749
-0.000457658
-0.000652041
0.0008171
0.00336062
0.00460491
0.00316841
0.00176042
0.00500985
0.0133744
0.0212583
0.0235755
0.0223326
0.0246125
0.0347178
0.0501557
0.0641033
0.0694618
0.0630042
0.0484075
0.0349005
0.0293821
0.0298179
0.0283115
0.0189018
0.00103218
-0.0220206
-0.0453484
-0.0647136
-0.0790303
-0.0907542
-0.102146
-0.112824
-0.120628
-0.12265
-0.116364
-0.101105
-0.0785268
-0.0519969
-0.0252519
-0.00109715
0.0185067
0.0327929
0.0423936
0.0483112
0.0514062
0.0528123
0.0533622
0.0533668
0.0531928
0.0531452
0.0531453
0.0531934
0.0533681
0.0533645
0.0528158
0.0514109
0.0483172
0.0424004
0.0328
0.0185134
-0.00109161
-0.0252482
-0.0519957
-0.0785282
-0.101109
-0.11637
-0.122657
-0.120636
-0.112832
-0.102154
-0.0907616
-0.0790371
-0.0647196
-0.0453529
-0.0220231
0.00103201
0.0189037
0.028315
0.0298222
0.0293868
0.0349057
0.0484136
0.0630108
0.0694679
0.0641077
0.0501579
0.034718
0.0246116
0.0223317
0.0235748
0.0212575
0.0133729
0.00500792
0.00175885
0.00316761
0.00460459
0.00336035
0.000816835
-0.000652166
-0.000457677
-0.000861741
-0.00174489
-0.000755021
0.00141394
0.00255144
0.00176042
0.00186438
0.00696938
0.0169397
0.026264
0.0302595
0.0307646
0.0342599
0.044738
0.0597642
0.0722586
0.0747131
0.0642355
0.0456327
0.0289808
0.0214164
0.0212177
0.0207024
0.0135109
-0.00178388
-0.022298
-0.0430772
-0.060304
-0.0735388
-0.0854715
-0.0984659
-0.112199
-0.124139
-0.13064
-0.128328
-0.116022
-0.095074
-0.0686337
-0.0406045
-0.0142292
0.00827192
0.0258183
0.0387039
0.0478065
0.0538956
0.0580124
0.0609581
0.0629137
0.0641249
0.0648308
0.0648309
0.0641254
0.0629147
0.0609599
0.0580152
0.0538993
0.047811
0.0387088
0.0258233
0.00827654
-0.0142254
-0.0406021
-0.0686329
-0.095075
-0.116024
-0.128333
-0.130646
-0.124146
-0.112205
-0.0984726
-0.0854781
-0.0735451
-0.0603099
-0.0430821
-0.0223012
-0.00178506
0.0135117
0.0207046
0.0212208
0.02142
0.0289853
0.0456386
0.0642425
0.0747202
0.0722643
0.0597676
0.0447393
0.0342599
0.0307642
0.0302591
0.0262632
0.0169381
0.00696714
0.00186223
0.00175886
0.00255037
0.00141305
-0.000755778
-0.00174537
-0.000861893
-0.000630053
-0.00100862
0.000481451
0.00299083
0.00459864
0.00500985
0.00696938
0.0136597
0.0242442
0.033745
0.038369
0.0397266
0.0431917
0.0521918
0.0646743
0.0738792
0.0723952
0.0578942
0.0361808
0.0176641
0.00920568
0.00934955
0.0109148
0.00726403
-0.00409542
-0.0209349
-0.0384297
-0.0532098
-0.0653895
-0.0776213
-0.0921459
-0.108693
-0.124462
-0.13518
-0.136712
-0.127366
-0.108145
-0.0819246
-0.0527293
-0.0242989
0.000806052
0.0211438
0.036634
0.0480508
0.0561903
0.0621006
0.0666344
0.0699249
0.0721186
0.0733717
0.0733719
0.0721193
0.0699261
0.066636
0.0621027
0.0561927
0.0480533
0.0366365
0.021146
0.000807712
-0.0242978
-0.0527288
-0.0819248
-0.108146
-0.127367
-0.136715
-0.135183
-0.124466
-0.108697
-0.0921504
-0.0776263
-0.065395
-0.0532156
-0.038435
-0.0209391
-0.00409792
0.00726311
0.0109152
0.00935071
0.00920752
0.017667
0.0361856
0.0579008
0.0724026
0.0738858
0.0646789
0.0521945
0.043193
0.0397273
0.0383693
0.0337448
0.0242431
0.0136577
0.00696714
0.00500793
0.00459712
0.00298953
0.00048033
-0.00100939
-0.000630324
0.000420285
0.00206681
0.00526928
0.00894929
0.0115401
0.0133744
0.0169397
0.0242442
0.0338063
0.0416689
0.0454043
0.0464303
0.0486741
0.0548175
0.0634707
0.0687225
0.0636817
0.0465962
0.0238467
0.00550885
-0.00235806
-0.00104331
0.00300652
0.00309287
-0.00428382
-0.0176141
-0.0322582
-0.0451645
-0.0567772
-0.0694454
-0.0851069
-0.103564
-0.121922
-0.135529
-0.13977
-0.13262
-0.11485
-0.0891284
-0.0595445
-0.0302412
-0.00399986
0.0175694
0.0341667
0.046537
0.0555707
0.0623077
0.0676084
0.0715823
0.0742962
0.0758346
0.0758349
0.0742971
0.0715836
0.0676099
0.0623089
0.0555716
0.0465374
0.0341665
0.0175687
-0.00400099
-0.0302427
-0.0595461
-0.0891299
-0.114852
-0.132621
-0.13977
-0.135529
-0.121922
-0.103565
-0.085108
-0.0694477
-0.0567808
-0.0451693
-0.0322634
-0.0176189
-0.00428763
0.00309017
0.0030047
-0.00104447
-0.00235857
0.00550954
0.0238494
0.0466014
0.0636884
0.0687292
0.0634762
0.0548215
0.0486768
0.0464322
0.0454056
0.0416695
0.033806
0.0242431
0.0169381
0.0133729
0.0115389
0.00894827
0.00526835
0.00206609
0.000420015
0.00147416
0.00510445
0.00988365
0.0145688
0.0180472
0.0212583
0.026264
0.033745
0.0416689
0.047409
0.0501242
0.0509711
0.0521282
0.0553478
0.0600667
0.0616577
0.0541109
0.0361512
0.0141826
-0.00266778
-0.00945615
-0.00726457
-0.00152142
0.00133691
-0.00296358
-0.0136334
-0.0263213
-0.0381909
-0.0498006
-0.0630208
-0.0793728
-0.0987165
-0.118187
-0.13303
-0.13851
-0.132531
-0.115851
-0.0910993
-0.0623578
-0.0339445
-0.00860186
0.0122082
0.0281914
0.0401172
0.0489499
0.0556057
0.0608337
0.0647424
0.0673863
0.0688546
0.068855
0.0673872
0.0647435
0.0608345
0.0556058
0.0489492
0.0401156
0.0281891
0.0122054
-0.00860502
-0.0339478
-0.062361
-0.0911022
-0.115854
-0.132532
-0.13851
-0.133029
-0.118185
-0.0987137
-0.0793704
-0.0630197
-0.0498014
-0.0381937
-0.0263256
-0.0136383
-0.00296827
0.00133272
-0.00152514
-0.00726786
-0.00945888
-0.00266932
0.0141832
0.0361546
0.0541164
0.061664
0.0600726
0.0553528
0.0521322
0.0509741
0.0501264
0.0474105
0.0416695
0.0337448
0.0262632
0.0212575
0.0180466
0.0145683
0.00988313
0.00510393
0.00147394
0.00168354
0.00565558
0.0105552
0.0151926
0.019043
0.0235755
0.0302595
0.038369
0.0454043
0.0501242
0.0531654
0.0551916
0.056362
0.0573237
0.0583882
0.0565663
0.0470909
0.0291017
0.00853438
-0.00684193
-0.0132064
-0.0112195
-0.00499832
-0.000408809
-0.00225051
-0.0105386
-0.0215018
-0.0325951
-0.0443542
-0.058059
-0.0747086
-0.0941153
-0.113477
-0.128154
-0.133625
-0.127957
-0.112073
-0.088688
-0.0617923
-0.0356512
-0.0127821
0.00570708
0.0196582
0.029868
0.0373509
0.0428493
0.0469706
0.0499123
0.0518048
0.0528089
0.0528091
0.0518051
0.0499124
0.0469702
0.0428481
0.0373486
0.0298648
0.0196543
0.00570281
-0.0127865
-0.0356556
-0.0617965
-0.0886918
-0.112076
-0.127959
-0.133625
-0.128152
-0.113473
-0.0941106
-0.0747036
-0.058055
-0.0443522
-0.0325955
-0.0215045
-0.0105428
-0.00225536
-0.000413806
-0.00500326
-0.0112242
-0.0132107
-0.0068452
0.00853312
0.0291032
0.0470948
0.0565717
0.058394
0.0573294
0.0563671
0.0551958
0.0531685
0.0501264
0.0454056
0.0383693
0.0302591
0.0235748
0.0190424
0.0151922
0.0105547
0.00565499
0.00168328
0.00130811
0.00449259
0.00854225
0.012507
0.0164945
0.0223326
0.0307646
0.0397266
0.0464303
0.0509711
0.0551916
0.0590425
0.060591
0.0593541
0.0565282
0.0510272
0.0396353
0.0218716
0.00278057
-0.0114707
-0.0179664
-0.0166533
-0.0101563
-0.00364387
-0.00233916
-0.0072886
-0.0157316
-0.0255783
-0.0371823
-0.051093
-0.0676743
-0.0865525
-0.104987
-0.118625
-0.123408
-0.117661
-0.102471
-0.0806192
-0.0559216
-0.0324789
-0.0126321
0.00278375
0.0136859
0.0208833
0.0255397
0.028398
0.0300907
0.0310635
0.0315625
0.0317776
0.0317773
0.0315617
0.0310621
0.0300888
0.0283954
0.0255364
0.0208794
0.0136814
0.00277892
-0.012637
-0.0324836
-0.055926
-0.0806232
-0.102474
-0.117664
-0.123409
-0.118624
-0.104984
-0.0865477
-0.0676685
-0.0510873
-0.037178
-0.0255763
-0.0157321
-0.00729124
-0.00234323
-0.00364876
-0.0101616
-0.0166588
-0.0179717
-0.0114753
0.00277767
0.0218711
0.0396373
0.0510311
0.0565333
0.0593598
0.0605969
0.0590476
0.0551957
0.0509741
0.0464323
0.0397273
0.0307642
0.0223317
0.0164935
0.012506
0.00854122
0.00449165
0.00130771
0.00139
0.00466764
0.00867798
0.012726
0.0174076
0.0246125
0.0342599
0.0431917
0.0486741
0.0521282
0.056362
0.060591
0.0610679
0.0564304
0.0488114
0.0391731
0.0260369
0.00921359
-0.00758025
-0.0200168
-0.0258706
-0.0242057
-0.0161977
-0.00641909
-0.000546117
-0.000876387
-0.00600666
-0.014356
-0.0258011
-0.0399406
-0.0563959
-0.0745161
-0.0916896
-0.104021
-0.10808
-0.102388
-0.0880086
-0.0676548
-0.0449244
-0.0237943
-0.00669462
0.0055039
0.0126317
0.0155381
0.0157513
0.0143438
0.0122518
0.0103286
0.00891979
0.00812428
0.0081236
0.00891788
0.0103257
0.0122484
0.0143401
0.0157475
0.015534
0.0126274
0.00549933
-0.00669923
-0.0237987
-0.0449283
-0.0676582
-0.0880114
-0.102391
-0.108081
-0.104021
-0.091688
-0.0745126
-0.0563908
-0.0399348
-0.0257956
-0.0143519
-0.00600468
-0.000876704
-0.000548418
-0.00642293
-0.0162027
-0.0242114
-0.0258766
-0.0200223
-0.00758469
0.00921092
0.0260364
0.0391748
0.048815
0.0564355
0.0610737
0.0605969
0.0563671
0.0521322
0.0486768
0.043193
0.0342599
0.0246116
0.0174064
0.0127247
0.00867662
0.00466646
0.00138952
0.00254117
0.00798576
0.0138509
0.0195909
0.0260171
0.0347178
0.044738
0.0521918
0.0548175
0.0553478
0.0573237
0.0593541
0.0564304
0.0467785
0.0335293
0.0196775
0.00550068
-0.00904972
-0.0220053
-0.031134
-0.0348038
-0.0312113
-0.0203331
-0.00638846
0.004471
0.0086975
0.00628951
-0.00151318
-0.0137061
-0.0286988
-0.0453356
-0.0627349
-0.0785804
-0.0895815
-0.0929989
-0.087449
-0.0737595
-0.054468
-0.0330298
-0.0134436
0.00149739
0.0106402
0.013674
0.0115736
0.00639271
-0.000248801
-0.00694964
-0.0123744
-0.0160676
-0.0180496
-0.0180504
-0.01607
-0.0123779
-0.00695377
-0.000253084
0.00638858
0.0115697
0.0136703
0.0106366
0.0014938
-0.0134471
-0.033033
-0.0544707
-0.0737616
-0.0874507
-0.093
-0.0895819
-0.0785798
-0.062733
-0.0453322
-0.0286941
-0.0137007
-0.00150801
0.00629349
0.00869957
0.00447091
-0.00639062
-0.0203371
-0.0312166
-0.0348099
-0.0311402
-0.022011
-0.00905431
0.00549777
0.0196766
0.0335307
0.0467819
0.0564355
0.0593599
0.0573294
0.0553528
0.0548215
0.0521945
0.0447393
0.0347179
0.0260166
0.01959
0.0138498
0.00798474
0.00254073
0.00442702
0.0134809
0.0225564
0.0311527
0.0400249
0.0501557
0.0597642
0.0646743
0.0634707
0.0600667
0.0583882
0.0565282
0.0488114
0.0335293
0.0147954
-0.00257751
-0.0166939
-0.0276085
-0.0353923
-0.0400856
-0.0406142
-0.0344081
-0.0205391
-0.00308069
0.011433
0.0184571
0.0168276
0.00775729
-0.00652215
-0.0231437
-0.0402987
-0.0570422
-0.07152
-0.0810892
-0.0836608
-0.0778826
-0.0642833
-0.0453054
-0.0244631
-0.0058814
0.00725174
0.0135405
0.012675
0.0058391
-0.00443785
-0.0160731
-0.0272986
-0.036342
-0.042538
-0.0458627
-0.0458634
-0.04254
-0.0363451
-0.0273025
-0.0160773
-0.00444197
0.00583549
0.012672
0.0135381
0.0072496
-0.00588349
-0.0244653
-0.0453075
-0.0642852
-0.0778841
-0.0836619
-0.0810899
-0.0715201
-0.0570416
-0.040297
-0.0231408
-0.00651809
0.00776207
0.0168322
0.0184606
0.0114347
-0.00308111
-0.0205418
-0.0344127
-0.0406199
-0.0400918
-0.0353985
-0.0276144
-0.0166987
-0.00258068
0.0147944
0.0335307
0.048815
0.0565333
0.058394
0.0600726
0.0634762
0.0646789
0.0597676
0.0501578
0.040026
0.0311531
0.0225562
0.0134804
0.00442676
0.00627991
0.0188833
0.0311161
0.0424451
0.053364
0.0641033
0.0722586
0.0738792
0.0687225
0.0616577
0.0565663
0.0510272
0.0391731
0.0196775
-0.00257751
-0.0214425
-0.0337292
-0.0396332
-0.0413514
-0.0411906
-0.0385888
-0.0302973
-0.014681
0.00431328
0.0200427
0.0274143
0.0244757
0.01263
-0.00462619
-0.0233263
-0.0412231
-0.0574498
-0.0706526
-0.0787545
-0.0802211
-0.0737879
-0.0598089
-0.0408114
-0.0205013
-0.00305373
0.00817516
0.0117928
0.00769533
-0.0027454
-0.016786
-0.0321791
-0.0470327
-0.0592483
-0.0678302
-0.0724951
-0.0724954
-0.0678314
-0.0592503
-0.0470354
-0.0321824
-0.0167894
-0.00274847
0.00769305
0.0117914
0.00817431
-0.00305446
-0.0205023
-0.0408129
-0.0598107
-0.0737898
-0.0802226
-0.0787556
-0.0706531
-0.0574498
-0.0412226
-0.023325
-0.00462396
0.0126333
0.0244797
0.0274181
0.0200456
0.00431439
-0.0146821
-0.0303005
-0.0385935
-0.0411961
-0.0413575
-0.0396397
-0.0337353
-0.0214474
-0.00258068
0.0196766
0.0391748
0.0510311
0.0565717
0.0616639
0.0687292
0.0738858
0.0722643
0.0641077
0.0533672
0.0424472
0.0311172
0.0188836
0.00627991
0.00736193
0.0219918
0.0359022
0.0484719
0.0598214
0.0694618
0.0747131
0.0723952
0.0636817
0.0541109
0.0470909
0.0396353
0.0260369
0.00550068
-0.0166939
-0.0337292
-0.041626
-0.0408966
-0.0358081
-0.0307742
-0.0256732
-0.0165641
-0.0010884
0.0171685
0.0318448
0.0377157
0.0323092
0.0171846
-0.00316587
-0.024003
-0.042797
-0.058778
-0.0710135
-0.0778992
-0.0784131
-0.0715416
-0.0576305
-0.0393266
-0.0203909
-0.00476488
0.00434443
0.00572367
-0.00052101
-0.0130308
-0.0291648
-0.046737
-0.0638733
-0.0782564
-0.0885624
-0.0942176
-0.0942177
-0.0885628
-0.0782571
-0.0638745
-0.0467387
-0.0291668
-0.0130327
-0.000522572
0.0057228
0.00434426
-0.0047647
-0.020391
-0.0393272
-0.057632
-0.0715436
-0.0784151
-0.0779009
-0.0710145
-0.0587784
-0.042797
-0.0240026
-0.00316497
0.0171863
0.0323118
0.037719
0.031848
0.0171708
-0.00108778
-0.0165654
-0.0256762
-0.0307784
-0.0358135
-0.0409029
-0.0416327
-0.0337353
-0.0166987
0.00549777
0.0260364
0.0396373
0.0470948
0.0541164
0.0636884
0.0724026
0.0747202
0.0694679
0.0598264
0.0484757
0.0359047
0.0219931
0.00736227
0.00722112
0.0214787
0.0347929
0.0464595
0.0562142
0.0630042
0.0642355
0.0578942
0.0465962
0.0361512
0.0291017
0.0218716
0.00921359
-0.00904972
-0.0276085
-0.0396332
-0.0408966
-0.0323858
-0.0202509
-0.0107283
-0.00404338
0.0044887
0.018083
0.0338828
0.0461636
0.049781
0.0418144
0.0237501
0.000685031
-0.0221557
-0.0419607
-0.057932
-0.0694564
-0.075456
-0.0755162
-0.0690433
-0.0564062
-0.0401234
-0.0236135
-0.0102291
-0.00285199
-0.00261922
-0.00948354
-0.0223777
-0.0389607
-0.0571188
-0.0749676
-0.0900703
-0.100939
-0.106902
-0.106902
-0.100939
-0.0900701
-0.0749674
-0.0571187
-0.0389609
-0.0223782
-0.00948415
-0.00261968
-0.00285201
-0.0102286
-0.0236129
-0.0401232
-0.0564067
-0.0690448
-0.0755183
-0.0754581
-0.0694581
-0.0579329
-0.0419609
-0.0221555
0.000685576
0.0237512
0.0418162
0.0497835
0.0461666
0.0338857
0.0180851
0.00448944
-0.00404408
-0.0107305
-0.0202548
-0.0323913
-0.0409029
-0.0396397
-0.0276144
-0.0090543
0.00921093
0.0218711
0.0291032
0.0361546
0.0466014
0.0579008
0.0642425
0.0630108
0.0562201
0.0464644
0.0347965
0.0214809
0.00722181
0.00611244
0.0181129
0.0290917
0.0383198
0.0452253
0.0484075
0.0456327
0.0361808
0.0238467
0.0141826
0.00853438
0.00278057
-0.00758025
-0.0220053
-0.0353923
-0.0413514
-0.0358081
-0.0202509
-0.0023365
0.010324
0.0173098
0.0240615
0.034739
0.04748
0.0573176
0.0591079
0.049392
0.0293273
0.00432348
-0.0200187
-0.0404841
-0.0561103
-0.0666424
-0.0717511
-0.0717317
-0.0664087
-0.0560008
-0.0424793
-0.0285268
-0.0167645
-0.00985086
-0.00913558
-0.0149066
-0.0265123
-0.0419452
-0.0590899
-0.0760094
-0.0902906
-0.100493
-0.106052
-0.106052
-0.100493
-0.0902899
-0.0760083
-0.0590885
-0.0419439
-0.0265112
-0.0149059
-0.00913525
-0.00985063
-0.0167641
-0.0285261
-0.0424785
-0.0560005
-0.0664093
-0.0717332
-0.0717532
-0.0666446
-0.0561118
-0.0404848
-0.0200185
0.00432423
0.0293284
0.0493934
0.0591097
0.0573199
0.0474827
0.0347417
0.0240636
0.0173112
0.010324
-0.00233843
-0.0202548
-0.0358135
-0.0413575
-0.0353985
-0.022011
-0.00758468
0.00277769
0.00853313
0.0141832
0.0238494
0.0361856
0.0456386
0.0484136
0.0452311
0.038325
0.029096
0.0181158
0.0061134
0.00512974
0.0150912
0.023876
0.030743
0.0349241
0.0349005
0.0289808
0.0176641
0.00550885
-0.00266778
-0.00684193
-0.0114707
-0.0200168
-0.031134
-0.0400856
-0.0411906
-0.0307742
-0.0107283
0.010324
0.0239899
0.0298739
0.0340942
0.0416769
0.051771
0.0599974
0.0609178
0.0504148
0.0292421
0.00309955
-0.0219879
-0.0423567
-0.0569195
-0.0659788
-0.0701584
-0.0703615
-0.0665449
-0.0584508
-0.0471908
-0.0346794
-0.0230373
-0.0149682
-0.012245
-0.0155248
-0.0244487
-0.0372902
-0.0519408
-0.0664971
-0.0787695
-0.0874913
-0.0922159
-0.0922158
-0.0874908
-0.0787686
-0.0664957
-0.051939
-0.037288
-0.0244464
-0.0155227
-0.0122434
-0.0149673
-0.0230368
-0.034679
-0.0471902
-0.0584501
-0.0665445
-0.0703619
-0.0701597
-0.0659808
-0.0569215
-0.042358
-0.0219882
0.00310027
0.0292435
0.0504163
0.0609193
0.0599989
0.0517727
0.041679
0.0340967
0.0298763
0.0239915
0.010324
-0.0107305
-0.0307784
-0.0411961
-0.0400918
-0.0311402
-0.0200223
-0.0114753
-0.00684519
-0.00266932
0.00550954
0.017667
0.0289853
0.0349057
0.0349295
0.0307483
0.0238807
0.0150945
0.00513091
0.00520103
0.0150966
0.0233259
0.029099
0.0315911
0.0293821
0.0214164
0.00920568
-0.00235806
-0.00945615
-0.0132064
-0.0179664
-0.0258706
-0.0348038
-0.0406142
-0.0385888
-0.0256732
-0.00404338
0.0173098
0.0298739
0.0335367
0.0348834
0.0395
0.0473213
0.0542702
0.0544245
0.0431122
0.0208956
-0.00610476
-0.0314615
-0.0512553
-0.0644756
-0.0721526
-0.075829
-0.0766616
-0.0743335
-0.0678864
-0.0575865
-0.0449033
-0.031844
-0.0213531
-0.0156565
-0.01562
-0.0209616
-0.0302157
-0.041392
-0.052751
-0.0624731
-0.0694563
-0.0732417
-0.0732415
-0.0694556
-0.0624721
-0.0527496
-0.0413902
-0.0302134
-0.020959
-0.0156173
-0.015654
-0.0213513
-0.031843
-0.0449029
-0.0575862
-0.0678859
-0.0743328
-0.0766611
-0.0758291
-0.0721537
-0.0644774
-0.0512571
-0.0314626
-0.00610467
0.0208967
0.0431138
0.054426
0.0542712
0.047322
0.039501
0.0348851
0.0335391
0.0298763
0.0173112
-0.00404408
-0.0256762
-0.0385935
-0.0406199
-0.0348099
-0.0258766
-0.0179717
-0.0132107
-0.00945889
-0.00235857
0.00920752
0.02142
0.0293868
0.0315964
0.0291046
0.023331
0.0151003
0.00520242
0.00595627
0.0170388
0.0257284
0.0312662
0.0330067
0.0298179
0.0212177
0.00934955
-0.00104331
-0.00726457
-0.0112195
-0.0166533
-0.0242057
-0.0312113
-0.0344081
-0.0302973
-0.0165641
0.0044887
0.0240615
0.0340942
0.0348834
0.0330935
0.0344329
0.0393757
0.0440477
0.0421974
0.0289394
0.00495708
-0.0231834
-0.048875
-0.0682747
-0.0806203
-0.0876231
-0.0914378
-0.0930722
-0.0917504
-0.0859204
-0.0753154
-0.0613316
-0.0460571
-0.0326067
-0.0235398
-0.0197999
-0.0211421
-0.0264712
-0.0340138
-0.042178
-0.0494844
-0.0548954
-0.05783
-0.0578298
-0.0548947
-0.0494833
-0.0421766
-0.0340122
-0.0264692
-0.0211399
-0.0197974
-0.0235372
-0.0326044
-0.0460555
-0.0613308
-0.0753152
-0.0859203
-0.0917501
-0.0930716
-0.0914372
-0.0876232
-0.0806213
-0.0682765
-0.0488768
-0.0231843
0.00495754
0.0289409
0.0421992
0.0440488
0.0393761
0.0344331
0.0330943
0.0348851
0.0340967
0.0240636
0.00448944
-0.0165654
-0.0303006
-0.0344127
-0.0312166
-0.0242114
-0.0166588
-0.0112242
-0.00726786
-0.00104448
0.0093507
0.0212208
0.0298222
0.0330119
0.0312719
0.0257338
0.0170429
0.0059578
0.006216
0.0174745
0.0256843
0.0303958
0.0314994
0.0283115
0.0207024
0.0109148
0.00300652
-0.00152142
-0.00499832
-0.0101563
-0.0161977
-0.0203331
-0.0205391
-0.014681
-0.0010884
0.018083
0.034739
0.0416769
0.0395
0.0344329
0.0318337
0.0325884
0.03324
0.0277067
0.0113188
-0.0149483
-0.0443446
-0.0704966
-0.0899252
-0.102094
-0.109049
-0.113101
-0.114931
-0.113548
-0.107221
-0.0955392
-0.0799716
-0.0625539
-0.0462668
-0.0338423
-0.0263338
-0.0237117
-0.0254063
-0.0298654
-0.0354936
-0.0409981
-0.0452754
-0.0475655
-0.0475653
-0.0452747
-0.0409971
-0.0354924
-0.0298641
-0.025405
-0.0237103
-0.0263321
-0.0338403
-0.0462646
-0.0625519
-0.0799702
-0.0955386
-0.107222
-0.113548
-0.114932
-0.113101
-0.109048
-0.102094
-0.0899263
-0.0704982
-0.0443461
-0.0149488
0.0113196
0.0277083
0.0332415
0.0325892
0.0318339
0.0344331
0.039501
0.041679
0.0347417
0.0180851
-0.00108779
-0.0146821
-0.0205418
-0.0203371
-0.0162027
-0.0101616
-0.00500325
-0.00152514
0.00300469
0.0109151
0.0207046
0.028315
0.0315038
0.0304008
0.0256893
0.0174784
0.00621747
0.00518742
0.0140907
0.0195543
0.0218049
0.0216352
0.0189018
0.0135109
0.00726403
0.00309287
0.00133691
-0.000408809
-0.00364387
-0.00641909
-0.00638846
-0.00308069
0.00431328
0.0171685
0.0338828
0.04748
0.051771
0.0473213
0.0393757
0.0325884
0.0283347
0.0240243
0.0142991
-0.00503356
-0.0328535
-0.0627574
-0.0890134
-0.108524
-0.120714
-0.127518
-0.131127
-0.13205
-0.129525
-0.122042
-0.109216
-0.0924501
-0.0734726
-0.0549148
-0.039629
-0.028876
-0.022966
-0.0218553
-0.0241455
-0.0281426
-0.0326333
-0.0363477
-0.0382894
-0.0382893
-0.0363472
-0.0326326
-0.0281417
-0.0241446
-0.0218544
-0.0229652
-0.0288751
-0.0396277
-0.0549132
-0.0734708
-0.0924484
-0.109215
-0.122042
-0.129526
-0.13205
-0.131128
-0.127518
-0.120714
-0.108524
-0.0890142
-0.0627587
-0.0328546
-0.00503363
0.0143001
0.0240258
0.0283361
0.0325892
0.0393761
0.047322
0.0517727
0.0474827
0.0338857
0.0171708
0.00431438
-0.00308111
-0.00639064
-0.00642295
-0.00364876
-0.000413801
0.00133271
0.00309015
0.0072631
0.0135117
0.0189037
0.021638
0.0218084
0.019558
0.0140936
0.00518856
0.00290436
0.00699866
0.00752657
0.00568266
0.0033919
0.00103218
-0.00178388
-0.00409542
-0.00428382
-0.00296358
-0.00225051
-0.00233916
-0.000546117
0.004471
0.011433
0.0200427
0.0318448
0.0461636
0.0573176
0.0599974
0.0542702
0.0440477
0.03324
0.0240243
0.0151484
0.00225745
-0.018452
-0.0461371
-0.0752476
-0.100778
-0.119704
-0.131133
-0.136722
-0.138678
-0.137694
-0.133513
-0.124883
-0.111258
-0.0936883
-0.0735524
-0.0532582
-0.035852
-0.0228326
-0.014769
-0.0119345
-0.0129633
-0.0160674
-0.020117
-0.0236782
-0.0255022
-0.0255021
-0.0236781
-0.0201168
-0.016067
-0.0129627
-0.0119338
-0.0147682
-0.0228318
-0.0358513
-0.0532573
-0.0735513
-0.093687
-0.111257
-0.124882
-0.133512
-0.137694
-0.138678
-0.136722
-0.131132
-0.119703
-0.100777
-0.075248
-0.0461378
-0.0184524
0.00225773
0.0151495
0.0240258
0.0332415
0.0440488
0.0542712
0.0599989
0.0573199
0.0461666
0.031848
0.0200456
0.0114347
0.0044709
-0.000548432
-0.00234324
-0.00225536
-0.00296827
-0.00428764
-0.00409793
-0.00178507
0.00103201
0.00339242
0.00568377
0.00752809
0.00700007
0.00290495
-0.000240074
-0.00258917
-0.00834322
-0.0151699
-0.019976
-0.0220206
-0.022298
-0.0209349
-0.0176141
-0.0136334
-0.0105386
-0.0072886
-0.000876387
0.0086975
0.0184571
0.0274143
0.0377157
0.049781
0.0591079
0.0609178
0.0544245
0.0421974
0.0277067
0.0142991
0.00225745
-0.0119278
-0.0320002
-0.0577676
-0.0847162
-0.108316
-0.125276
-0.134337
-0.1371
-0.136174
-0.13271
-0.126869
-0.117413
-0.103311
-0.085051
-0.0638243
-0.0420849
-0.0231482
-0.00874745
0.000422722
0.00403317
0.00355941
0.000890812
-0.00294024
-0.0064262
-0.00816712
-0.0081672
-0.00642641
-0.00294041
0.000890831
0.00355972
0.00403379
0.000423505
-0.00874675
-0.0231477
-0.0420846
-0.063824
-0.0850504
-0.10331
-0.117412
-0.126868
-0.132709
-0.136174
-0.137101
-0.134337
-0.125276
-0.108315
-0.0847156
-0.0577674
-0.0320004
-0.011928
0.00225773
0.0143001
0.0277083
0.0421992
0.054426
0.0609193
0.0591097
0.0497835
0.037719
0.0274181
0.0184606
0.00869956
-0.000876715
-0.00729125
-0.0105428
-0.0136383
-0.0176189
-0.0209391
-0.0223012
-0.0220231
-0.019978
-0.0151715
-0.00834432
-0.00258966
-0.000240183
-0.00373812
-0.0130973
-0.0253513
-0.0369972
-0.0439382
-0.0453484
-0.0430772
-0.0384297
-0.0322582
-0.0263213
-0.0215018
-0.0157316
-0.00600666
0.00628951
0.0168276
0.0244757
0.0323092
0.0418144
0.049392
0.0504148
0.0431122
0.0289394
0.0113188
-0.00503356
-0.018452
-0.0320002
-0.0496664
-0.072022
-0.0954839
-0.115725
-0.129121
-0.134226
-0.132913
-0.12846
-0.122434
-0.115081
-0.104968
-0.0904855
-0.0715812
-0.049419
-0.0265822
-0.00657198
0.00869084
0.0184352
0.0223547
0.0220441
0.0195287
0.0158158
0.0124341
0.0108117
0.0108116
0.0124338
0.0158156
0.0195286
0.0220442
0.022355
0.0184357
0.00869133
-0.00657157
-0.0265819
-0.0494188
-0.071581
-0.0904849
-0.104967
-0.11508
-0.122433
-0.12846
-0.132914
-0.134228
-0.129122
-0.115725
-0.0954831
-0.0720211
-0.049666
-0.0320004
-0.0184524
-0.00503363
0.0113196
0.0289409
0.0431138
0.0504163
0.0493934
0.0418162
0.0323118
0.0244796
0.0168322
0.00629348
-0.00600469
-0.0157321
-0.0215045
-0.0263256
-0.0322634
-0.038435
-0.0430821
-0.0453529
-0.0439427
-0.0370015
-0.025355
-0.0130999
-0.00373898
-0.00694183
-0.0225926
-0.0403881
-0.0558223
-0.064136
-0.0647136
-0.060304
-0.0532098
-0.0451645
-0.0381909
-0.0325951
-0.0255783
-0.014356
-0.00151318
0.00775729
0.01263
0.0171846
0.0237501
0.0293273
0.0292421
0.0208956
0.00495708
-0.0149483
-0.0328535
-0.0461371
-0.0577676
-0.072022
-0.0900346
-0.108921
-0.124543
-0.133261
-0.133766
-0.128348
-0.120817
-0.112756
-0.104133
-0.0933499
-0.0784766
-0.0591544
-0.0365948
-0.0133499
0.00714521
0.022926
0.0331489
0.0374028
0.0372181
0.0347123
0.0309412
0.0274977
0.0258755
0.0258755
0.0274979
0.0309413
0.0347123
0.037218
0.0374027
0.0331489
0.0229263
0.00714569
-0.0133493
-0.0365944
-0.0591543
-0.0784765
-0.0933496
-0.104132
-0.112755
-0.120816
-0.128348
-0.133767
-0.133262
-0.124544
-0.108921
-0.0900338
-0.0720211
-0.0577674
-0.0461378
-0.0328546
-0.0149488