/*--------------------------------*- C++ -*----------------------------------*\
  =========                 |
  \\      /  F ield         | OpenFOAM: The Open Source CFD Toolbox
   \\    /   O peration     | Website:  https://openfoam.org
    \\  /    A nd           | Version:  10
     \\/     M anipulation  |
\*---------------------------------------------------------------------------*/
FoamFile
{
    format      ascii;
    class       volScalarField;
    location    "49";
    object      h;
}
// * * * * * * * * * * * * * * * * * * * * * * * * * * * * * * * * * * * * * //

dimensions      [0 1 0 0 0 0 0];

internalField   nonuniform List<scalar> 
10000
(
0.00447263
0.0118909
0.0158203
0.0166512
0.0164792
0.0171672
0.0187823
0.0197896
0.0186077
0.015014
0.010207
0.00565172
0.00210738
-0.000434282
-0.00224761
-0.00351026
-0.00435091
-0.00492315
-0.00535505
-0.00586991
-0.00685449
-0.00848983
-0.0104956
-0.0123375
-0.0139175
-0.0157228
-0.0178673
-0.0197238
-0.0208128
-0.0213646
-0.0216869
-0.0214754
-0.0201745
-0.017956
-0.0154072
-0.0124825
-0.00888773
-0.00500437
-0.00137217
0.00202329
0.00526596
0.00808524
0.0102698
0.0119464
0.0132404
0.0141109
0.014595
0.0148695
0.015025
0.0150778
0.0150777
0.0150247
0.014869
0.0145943
0.01411
0.0132394
0.0119453
0.0102687
0.00808426
0.00526514
0.00202269
-0.00137248
-0.00500437
-0.00888745
-0.012482
-0.0154064
-0.017955
-0.0201736
-0.0214746
-0.0216862
-0.0213641
-0.0208125
-0.0197238
-0.0178675
-0.0157232
-0.0139181
-0.0123382
-0.0104962
-0.00849039
-0.006855
-0.0058704
-0.00535552
-0.00492359
-0.00435132
-0.00351066
-0.00224795
-0.000434544
0.00210722
0.00565173
0.0102073
0.0150147
0.0186087
0.0197908
0.0187834
0.0171682
0.0164803
0.0166524
0.0158218
0.011892
0.00447309
0.0118909
0.0312872
0.0407085
0.0414282
0.0396845
0.0410063
0.0456526
0.0491431
0.0467881
0.0378101
0.0255468
0.0141359
0.00569347
9.77435e-05
-0.00356356
-0.00591722
-0.00739898
-0.00846801
-0.0094856
-0.0110403
-0.0141678
-0.019291
-0.025509
-0.0312386
-0.0361612
-0.0416507
-0.0480481
-0.0535869
-0.0569295
-0.05879
-0.0600653
-0.0598977
-0.0567246
-0.0510162
-0.0443928
-0.0366964
-0.0270676
-0.0165448
-0.00662386
0.00275339
0.0118156
0.0197874
0.0260623
0.0309763
0.0348413
0.037519
0.0390978
0.0400505
0.0406131
0.0408269
0.0408265
0.0406121
0.0400488
0.0390955
0.0375163
0.0348383
0.0309732
0.0260592
0.0197846
0.0118133
0.00275174
-0.0066247
-0.0165448
-0.0270668
-0.0366949
-0.0443907
-0.0510138
-0.0567221
-0.0598954
-0.0600632
-0.0587884
-0.0569286
-0.0535866
-0.0480483
-0.0416513
-0.0361621
-0.0312398
-0.0255102
-0.019292
-0.0141687
-0.0110413
-0.00948654
-0.00846892
-0.00739989
-0.00591817
-0.00356447
9.69969e-05
0.00569296
0.0141358
0.0255474
0.0378117
0.0467906
0.0491458
0.045655
0.0410083
0.0396867
0.0414312
0.040712
0.0312901
0.011892
0.0158203
0.0407085
0.0503569
0.0470981
0.0410668
0.0412425
0.0482104
0.0549286
0.0538435
0.043383
0.0284048
0.0151128
0.00660889
0.00247369
0.000980835
0.000811852
0.00108391
0.00104571
0.000161446
-0.00234606
-0.00790348
-0.0169037
-0.0276643
-0.0376165
-0.0461802
-0.0553631
-0.0656792
-0.0745468
-0.0800781
-0.0835005
-0.0861865
-0.0868786
-0.083344
-0.0762493
-0.0678652
-0.057869
-0.0449314
-0.0304734
-0.0166096
-0.00319404
0.0100869
0.0220587
0.0318078
0.0397639
0.0462579
0.0510132
0.0541079
0.056153
0.0574292
0.0579764
0.0579759
0.0574275
0.0561503
0.0541043
0.0510089
0.0462532
0.0397591
0.0318032
0.0220546
0.0100836
-0.00319635
-0.0166108
-0.0304734
-0.0449302
-0.0578669
-0.0678623
-0.0762459
-0.0833406
-0.0868753
-0.0861835
-0.083498
-0.0800763
-0.0745456
-0.0656785
-0.0553627
-0.0461802
-0.0376169
-0.0276646
-0.0169039
-0.0079037
-0.00234643
0.00016094
0.00104509
0.00108312
0.000810829
0.000979709
0.00247264
0.00660802
0.0151123
0.0284052
0.0433845
0.0538459
0.0549312
0.0482121
0.0412436
0.0410682
0.0471007
0.0503606
0.040712
0.0158218
0.0166512
0.0414282
0.0470981
0.0370266
0.0246293
0.02184
0.0297262
0.039352
0.0408438
0.0317182
0.0176799
0.00633787
0.00146932
0.00231546
0.00625958
0.0110656
0.0152472
0.0177486
0.017869
0.0147627
0.00687453
-0.00587365
-0.0209008
-0.0348167
-0.0467586
-0.0589917
-0.0720925
-0.083095
-0.089972
-0.09444
-0.0981704
-0.0997392
-0.0967494
-0.0899663
-0.0818178
-0.0717927
-0.0582819
-0.0427489
-0.0274548
-0.0121085
0.00361821
0.0183205
0.0309345
0.041847
0.0512011
0.0585326
0.0638319
0.0676316
0.0701101
0.0712608
0.0712601
0.0701079
0.067628
0.0638273
0.0585272
0.0511954
0.0418413
0.0309291
0.0183159
0.00361466
-0.0121108
-0.0274558
-0.0427486
-0.0582805
-0.0717904
-0.0818147
-0.0899628
-0.0967458
-0.0997357
-0.0981669
-0.0944368
-0.0899693
-0.0830927
-0.0720905
-0.0589899
-0.0467571
-0.0348156
-0.0208997
-0.00587252
0.0068755
0.0147633
0.0178693
0.0177486
0.0152469
0.0110649
0.00625859
0.00231439
0.00146831
0.00633713
0.0176799
0.0317191
0.0408454
0.0393532
0.0297261
0.0218388
0.0246283
0.0370274
0.0471007
0.0414312
0.0166525
0.0164792
0.0396845
0.0410668
0.0246293
0.00600346
-0.000757836
0.0060213
0.0164152
0.0190938
0.0108247
-0.00235236
-0.0119148
-0.0134359
-0.00772467
0.00191305
0.0122761
0.0211539
0.0271015
0.0291699
0.0264156
0.0173175
0.0022441
-0.0154322
-0.0318145
-0.0458178
-0.0595436
-0.0734605
-0.084613
-0.0912242
-0.0953801
-0.0988105
-0.100155
-0.0973857
-0.0913307
-0.0841089
-0.0750683
-0.062599
-0.0479244
-0.0329644
-0.0172432
-0.000478651
0.0159026
0.0308965
0.0447455
0.0572331
0.0676745
0.0759067
0.082169
0.086378
0.0884206
0.0884198
0.0863755
0.0821652
0.0759018
0.0676689
0.0572273
0.0447399
0.0308914
0.0158985
-0.000481571
-0.0172449
-0.0329649
-0.0479238
-0.0625975
-0.075066
-0.0841061
-0.0913275
-0.0973823
-0.100152
-0.098807
-0.0953766
-0.0912208
-0.0846098
-0.0734574
-0.0595407
-0.0458152
-0.0318123
-0.0154303
0.00224584
0.017319
0.0264166
0.0291706
0.0271018
0.0211538
0.0122756
0.00191228
-0.00772555
-0.0134367
-0.0119155
-0.00235246
0.0108253
0.0190947
0.0164153
0.0060196
-0.000760978
0.00600053
0.0246283
0.0410682
0.0396868
0.0164803
0.0171672
0.0410063
0.0412425
0.02184
-0.000757836
-0.0114802
-0.00801582
-0.000262591
8.45707e-05
-0.0105598
-0.0261416
-0.0375363
-0.0394921
-0.0323312
-0.0195756
-0.00522771
0.00775196
0.0174494
0.0225378
0.0217823
0.0136744
-0.00105135
-0.0185538
-0.0348623
-0.0488529
-0.062089
-0.0747001
-0.0840596
-0.0889445
-0.0915325
-0.093265
-0.0929877
-0.089495
-0.0836891
-0.0770104
-0.0687635
-0.0576874
-0.0446324
-0.0307999
-0.0155421
0.00132149
0.0185424
0.0353934
0.0519346
0.0675178
0.0812423
0.0927667
0.10189
0.108142
0.111249
0.111248
0.10814
0.101886
0.0927624
0.0812376
0.0675131
0.0519303
0.0353898
0.0185397
0.00131984
-0.0155428
-0.0307997
-0.0446314
-0.0576858
-0.0687615
-0.0770081
-0.0836864
-0.0894921
-0.0929847
-0.0932618
-0.0915291
-0.088941
-0.0840563
-0.074697
-0.0620861
-0.0488505
-0.0348604
-0.0185524
-0.00105024
0.0136752
0.0217828
0.022538
0.0174494
0.00775171
-0.00522825
-0.0195763
-0.032332
-0.0394927
-0.0375366
-0.0261413
-0.0105589
8.56606e-05
-0.000262456
-0.00801753
-0.0114835
-0.000760982
0.0218388
0.0412436
0.0410083
0.0171683
0.0187823
0.0456526
0.0482104
0.0297262
0.0060213
-0.00801582
-0.0095023
-0.00734098
-0.0125278
-0.0285822
-0.0497692
-0.0667562
-0.0733489
-0.0688368
-0.0563689
-0.040403
-0.0245519
-0.0112341
-0.00226733
0.000617416
-0.00410376
-0.0154865
-0.0296919
-0.0431788
-0.0550577
-0.0661071
-0.0759385
-0.0824875
-0.0852367
-0.0860801
-0.0858149
-0.0835099
-0.0789819
-0.073195
-0.0666674
-0.0587708
-0.0489166
-0.0376038
-0.0251324
-0.0107829
0.00545889
0.0226581
0.040515
0.0589255
0.0768599
0.0932619
0.107642
0.119335
0.127454
0.131536
0.131535
0.127452
0.119333
0.10764
0.0932591
0.0768574
0.0589233
0.0405134
0.0226572
0.00545864
-0.0107826
-0.0251317
-0.0376027
-0.0489151
-0.0587691
-0.0666656
-0.0731928
-0.0789794
-0.0835073
-0.0858122
-0.0860771
-0.0852337
-0.0824849
-0.0759364
-0.0661053
-0.0550564
-0.0431781
-0.0296918
-0.0154866
-0.00410401
0.000617124
-0.00226771
-0.0112345
-0.0245524
-0.0404038
-0.0563698
-0.0688377
-0.0733495
-0.0667563
-0.0497687
-0.0285808
-0.0125261
-0.00733988
-0.0095027
-0.00801756
0.00601957
0.0297261
0.0482122
0.0456551
0.0187834
0.0197896
0.0491431
0.0549286
0.039352
0.0164152
-0.000262591
-0.00734098
-0.0119374
-0.0234792
-0.0451551
-0.0720612
-0.0953154
-0.107978
-0.108038
-0.0977875
-0.0817574
-0.0640688
-0.0476209
-0.0347123
-0.0275778
-0.0276402
-0.0338371
-0.042758
-0.0516877
-0.0602295
-0.0682986
-0.0749141
-0.0787506
-0.0800662
-0.0801735
-0.0789559
-0.0756019
-0.0708706
-0.0657336
-0.0596657
-0.0521537
-0.0434658
-0.0338648
-0.0227883
-0.00962406
0.00539327
0.0216792
0.0393726
0.0582425
0.0770286
0.0946377
0.110517
0.123658
0.132855
0.137506
0.137506
0.132855
0.123658
0.110517
0.0946377
0.0770288
0.0582429
0.0393731
0.0216799
0.00539413
-0.00962318
-0.0227874
-0.0338638
-0.0434647
-0.0521525
-0.0596644
-0.065732
-0.0708688
-0.0756001
-0.078954
-0.0801716
-0.0800645
-0.0787495
-0.0749135
-0.0682984
-0.0602297
-0.0516883
-0.042759
-0.0338381
-0.0276409
-0.0275782
-0.0347126
-0.0476212
-0.0640694
-0.0817583
-0.0977887
-0.108039
-0.107978
-0.0953157
-0.0720607
-0.0451536
-0.023477
-0.0119354
-0.00733992
-0.000262515
0.0164153
0.0393532
0.0549312
0.0491459
0.0197908
0.0186077
0.0467881
0.0538435
0.0408438
0.0190938
8.45707e-05
-0.0125278
-0.0234792
-0.0399213
-0.0645612
-0.093886
-0.120321
-0.13679
-0.140154
-0.131647
-0.115597
-0.0964858
-0.0776007
-0.061631
-0.0511348
-0.0471771
-0.0484713
-0.0521762
-0.0565515
-0.0617902
-0.0669829
-0.0706019
-0.0722585
-0.0730363
-0.0735399
-0.0726712
-0.06967
-0.0660123
-0.0625602
-0.057743
-0.0511181
-0.0438018
-0.035915
-0.0262383
-0.0144604
-0.00114354
0.0134268
0.0296832
0.0472823
0.064936
0.0816741
0.0969959
0.109789
0.11877
0.123317
0.123317
0.118771
0.109791
0.0969985
0.081677
0.064939
0.0472851
0.0296857
0.0134289
-0.00114189
-0.0144592
-0.0262374
-0.0359143
-0.0438011
-0.0511174
-0.0577422
-0.0625593
-0.0660113
-0.0696693
-0.0726708
-0.0735396
-0.0730363
-0.0722591
-0.0706031
-0.0669843
-0.0617914
-0.0565527
-0.0521773
-0.048472
-0.0471772
-0.0511344
-0.0616305
-0.0776004
-0.096486
-0.115598
-0.131648
-0.140155
-0.136791
-0.120322
-0.093886
-0.0645602
-0.0399194
-0.0234771
-0.0125261
8.56031e-05
0.0190947
0.0408454
0.053846
0.0467906
0.0186088
0.015014
0.0378101
0.043383
0.0317182
0.0108247
-0.0105598
-0.0285822
-0.0451551
-0.0645612
-0.0888452
-0.116263
-0.141355
-0.157677
-0.161352
-0.152585
-0.135323
-0.114342
-0.0933604
-0.0754643
-0.0632745
-0.0571487
-0.0553229
-0.055434
-0.0566526
-0.0595954
-0.0625921
-0.0636916
-0.0635382
-0.0640208
-0.0651379
-0.0650656
-0.0631481
-0.0612941
-0.0601171
-0.0571836
-0.0520509
-0.04646
-0.0403797
-0.0322057
-0.0220692
-0.0108798
0.00129376
0.0149359
0.0295604
0.044052
0.0577265
0.0702402
0.0806571
0.0879373
0.0916147
0.0916156
0.0879399
0.0806611
0.0702452
0.0577319
0.0440575
0.0295654
0.0149401
0.0012971
-0.0108774
-0.0220676
-0.0322047
-0.0403791
-0.0464597
-0.0520507
-0.0571836
-0.0601172
-0.0612944
-0.063149
-0.0650668
-0.0651394
-0.0640225
-0.0635402
-0.0636938
-0.062594
-0.0595966
-0.0566533
-0.0554343
-0.0553226
-0.0571477
-0.063273
-0.0754629
-0.0933596
-0.114342
-0.135324
-0.152587
-0.161354
-0.157678
-0.141356
-0.116264
-0.088845
-0.0645602
-0.0451537
-0.0285808
-0.010559
0.0108253
0.0317191
0.0433845
0.0378118
0.0150147
0.010207
0.0255468
0.0284048
0.0176799
-0.00235236
-0.0261416
-0.0497692
-0.0720612
-0.093886
-0.116263
-0.139166
-0.159672
-0.172625
-0.173867
-0.162749
-0.142724
-0.118846
-0.0954324
-0.0760975
-0.0633932
-0.0568135
-0.0539616
-0.052749
-0.0529882
-0.0552901
-0.0572485
-0.056586
-0.0548608
-0.0546484
-0.0555657
-0.0554969
-0.054069
-0.0534291
-0.0538912
-0.052552
-0.0489515
-0.0451145
-0.0407774
-0.0342166
-0.0260343
-0.0173994
-0.00820252
0.00186889
0.012142
0.0218373
0.0306882
0.0385647
0.0449245
0.0492683
0.0514466
0.0514478
0.0492717
0.0449298
0.0385713
0.0306955
0.0218445
0.0121487
0.00187468
-0.00819787
-0.0173959
-0.0260319
-0.0342151
-0.0407767
-0.0451143
-0.0489519
-0.052553
-0.0538926
-0.053431
-0.0540714
-0.0554996
-0.0555685
-0.0546511
-0.0548633
-0.056588
-0.0572499
-0.0552905
-0.0529879
-0.0527483
-0.0539604
-0.0568118
-0.0633913
-0.0760959
-0.0954316
-0.118846
-0.142725
-0.162751
-0.173869
-0.172627
-0.159674
-0.139168
-0.116264
-0.093886
-0.0720607
-0.0497686
-0.0261413
-0.00235245
0.0176799
0.0284052
0.0255475
0.0102073
0.00565172
0.0141359
0.0151128
0.00633787
-0.0119148
-0.0375363
-0.0667562
-0.0953154
-0.120321
-0.141355
-0.159672
-0.174867
-0.183473
-0.181377
-0.167217
-0.143754
-0.116186
-0.0896052
-0.0683851
-0.0551393
-0.0486585
-0.0459557
-0.0450882
-0.0462491
-0.0495667
-0.0519105
-0.0507144
-0.0481019
-0.0470247
-0.0468247
-0.045516
-0.0432715
-0.0423747
-0.0428453
-0.0418598
-0.0390746
-0.0365026
-0.0335879
-0.0287103
-0.0228657
-0.0172985
-0.0116744
-0.00594226
-0.000958513
0.00295228
0.00601679
0.00830772
0.00975318
0.0105498
0.0109327
0.0109339
0.0105534
0.00975873
0.00831477
0.0060247
0.00296041
-0.000950682
-0.00593516
-0.0116684
-0.0172937
-0.0228622
-0.0287081
-0.0335869
-0.0365028
-0.0390758
-0.0418618
-0.042848
-0.0423779
-0.043275
-0.0455195
-0.0468278
-0.0470272
-0.0481038
-0.0507155
-0.0519108
-0.0495662
-0.0462481
-0.045087
-0.0459543
-0.0486569
-0.0551378
-0.0683841
-0.0896051
-0.116186
-0.143755
-0.167219
-0.181379
-0.183475
-0.174869
-0.159674
-0.141356
-0.120322
-0.0953157
-0.0667563
-0.0375366
-0.0119154
0.00633715
0.0151123
0.0141358
0.00565174
0.00210738
0.00569347
0.00660889
0.00146932
-0.0134359
-0.0394921
-0.0733489
-0.107978
-0.13679
-0.157677
-0.172625
-0.183473
-0.188592
-0.184104
-0.167991
-0.141976
-0.111075
-0.0812019
-0.0576332
-0.0432469
-0.0364361
-0.0338734
-0.0338858
-0.0369261
-0.0423075
-0.0462865
-0.0460858
-0.0438803
-0.0425031
-0.0409687
-0.0377238
-0.0336619
-0.0310342
-0.029597
-0.0272202
-0.0239591
-0.0216378
-0.0194658
-0.0161264
-0.0128944
-0.0108698
-0.00938701
-0.00856199
-0.009336
-0.0114926
-0.0142983
-0.0175322
-0.0208688
-0.0234696
-0.0247819
-0.0247808
-0.0234665
-0.020864
-0.0175258
-0.0142908
-0.0114845
-0.00932778
-0.00855411
-0.00938
-0.010864
-0.01289
-0.0161237
-0.0194649
-0.0216385
-0.023961
-0.0272232
-0.0296007
-0.0310381
-0.0336656
-0.0377271
-0.0409713
-0.0425048
-0.0438811
-0.0460859
-0.0462861
-0.0423067
-0.0369251
-0.0338848
-0.0338726
-0.0364352
-0.0432462
-0.057633
-0.0812023
-0.111076
-0.141978
-0.167993
-0.184106
-0.188594
-0.183475
-0.172627
-0.157678
-0.136791
-0.107978
-0.0733495
-0.0394927
-0.0134367
0.00146832
0.00660802
0.00569297
0.00210723
-0.000434282
9.77435e-05
0.00247369
0.00231546
-0.00772467
-0.0323312
-0.0688368
-0.108038
-0.140154
-0.161352
-0.173867
-0.181377
-0.184104
-0.178691
-0.162596
-0.136201
-0.103841
-0.0719422
-0.0464968
-0.0307405
-0.0230293
-0.020066
-0.0206912
-0.0255247
-0.0329897
-0.0390284
-0.040867
-0.040331
-0.0396794
-0.0374477
-0.0325662
-0.0266387
-0.0216386
-0.0170962
-0.0120123
-0.00710358
-0.00395155
-0.00174108
0.000358927
0.000905641
-0.000886227
-0.00393814
-0.00832496
-0.0148786
-0.0227984
-0.0308874
-0.0388349
-0.0460707
-0.0513477
-0.0539702
-0.0539695
-0.0513456
-0.0460672
-0.03883
-0.0308812
-0.0227913
-0.0148709
-0.00831722
-0.00393095
-0.000880112
0.000910288
0.000361769
-0.0017402
-0.00395239
-0.00710574
-0.0120155
-0.0170999
-0.0216422
-0.0266418
-0.0325685
-0.0374494
-0.0396803
-0.0403312
-0.0408668
-0.0390282
-0.0329895
-0.0255245
-0.0206912
-0.0200661
-0.0230294
-0.0307405
-0.046497
-0.0719427
-0.103842
-0.136202
-0.162597
-0.178692
-0.184106
-0.181379
-0.173869
-0.161354
-0.140155
-0.108039
-0.0688377
-0.0323319
-0.00772553
0.0023144
0.00247263
9.69906e-05
-0.000434536
-0.00224761
-0.00356356
0.000980835
0.00625958
0.00191305
-0.0195756
-0.0563689
-0.0977875
-0.131647
-0.152585
-0.162749
-0.167217
-0.167991
-0.162596
-0.148153
-0.123573
-0.0920584
-0.0600556
-0.0339543
-0.0172854
-0.0085823
-0.0048171
-0.00549698
-0.0113098
-0.0199751
-0.0275488
-0.0315992
-0.0334828
-0.0345523
-0.0327581
-0.0274589
-0.0208531
-0.0143111
-0.00707845
0.000605656
0.00725687
0.011537
0.014054
0.0150294
0.0129552
0.00741277
-0.000139708
-0.00956252
-0.0213669
-0.0342153
-0.0465585
-0.0580343
-0.0679601
-0.0749782
-0.0784399
-0.0784395
-0.074977
-0.067958
-0.0580312
-0.0465543
-0.0342101
-0.021361
-0.00955622
-0.000133605
0.00741814
0.0129594
0.0150321
0.014055
0.0115366
0.00725546
0.0006035
-0.00708098
-0.0143134
-0.0208549
-0.0274603
-0.0327592
-0.034553
-0.0334831
-0.0315996
-0.0275495
-0.019976
-0.0113107
-0.00549777
-0.00481778
-0.00858277
-0.0172856
-0.0339544
-0.0600559
-0.0920589
-0.123574
-0.148154
-0.162597
-0.167993
-0.167219
-0.162751
-0.152587
-0.131648
-0.0977887
-0.0563698
-0.0195762
0.00191231
0.00625859
0.000979694
-0.00356449
-0.00224795
-0.00351026
-0.00591722
0.000811852
0.0110656
0.0122761
-0.00522771
-0.040403
-0.0817574
-0.115597
-0.135323
-0.142724
-0.143754
-0.141976
-0.136201
-0.123573
-0.101794
-0.0727465
-0.0424053
-0.0172004
-0.000688838
0.00836833
0.0125885
0.0118281
0.00555213
-0.00339587
-0.0115234
-0.0171212
-0.0212313
-0.0241735
-0.0234642
-0.018927
-0.0131737
-0.00669315
0.00161655
0.0104372
0.0176631
0.0222813
0.0245973
0.0241961
0.0196398
0.010849
-0.00050843
-0.0140616
-0.0298832
-0.0462714
-0.0615176
-0.0752321
-0.0866737
-0.0945957
-0.0985023
-0.0985022
-0.0945954
-0.086673
-0.0752309
-0.0615158
-0.0462688
-0.0298801
-0.014058
-0.000504583
0.0108527
0.0196432
0.0241988
0.0245992
0.0222824
0.0176636
0.0104371
0.0016161
-0.00669375
-0.0131742
-0.0189277
-0.0234652
-0.0241747
-0.0212325
-0.0171226
-0.0115252
-0.00339769
0.00555061
0.0118271
0.0125879
0.00836799
-0.00068883
-0.0172002
-0.0424052
-0.0727465
-0.101794
-0.123574
-0.136202
-0.141978
-0.143755
-0.142725
-0.135324
-0.115598
-0.0817583
-0.0404038
-0.0052282
0.0122756
0.0110649
0.000810811
-0.00591819
-0.00351065
-0.00435091
-0.00739898
0.00108391
0.0152472
0.0211539
0.00775196
-0.0245519
-0.0640688
-0.0964858
-0.114342
-0.118846
-0.116186
-0.111075
-0.103841
-0.0920584
-0.0727465
-0.0465768
-0.0186866
0.00473598
0.0203701
0.029103
0.0329672
0.0314538
0.0245415
0.0156496
0.00769982
0.00143722
-0.0040836
-0.00822928
-0.00845726
-0.00516327
-0.00119586
0.00382184
0.0112862
0.0191389
0.0250233
0.0284291
0.0294373
0.0270994
0.0202562
0.00914926
-0.00460782
-0.0205691
-0.0384104
-0.0563425
-0.0727619
-0.087299
-0.0991603
-0.107284
-0.111318
-0.111318
-0.107285
-0.099161
-0.0872998
-0.0727627
-0.0563432
-0.0384107
-0.0205688
-0.00460683
0.00915096
0.0202586
0.0271022
0.0294404
0.0284322
0.0250262
0.0191413
0.011288
0.00382281
-0.00119555
-0.00516377
-0.00845866
-0.00823117
-0.00408559
0.00143504
0.00769752
0.0156476
0.0245401
0.0314533
0.0329672
0.0291032
0.0203705
0.00473652
-0.0186861
-0.0465765
-0.0727465
-0.0920589
-0.103842
-0.111076
-0.116186
-0.118846
-0.114342
-0.096486
-0.0640694
-0.0245524
0.00775176
0.0211539
0.0152469
0.0010831
-0.00739991
-0.00435132
-0.00492315
-0.00846801
0.00104571
0.0177486
0.0271015
0.0174494
-0.0112341
-0.0476209
-0.0776007
-0.0933604
-0.0954324
-0.0896052
-0.0812019
-0.0719422
-0.0600556
-0.0424053
-0.0186866
0.00693551
0.0286536
0.043515
0.0518803
0.0550155
0.052348
0.0446143
0.0358817
0.0286151
0.0225458
0.0167585
0.0127092
0.0125832
0.015233
0.017631
0.0207307
0.0260934
0.031279
0.0340424
0.0345934
0.0330144
0.0280497
0.0190536
0.00663342
-0.00789961
-0.0242372
-0.0418205
-0.0590574
-0.0747083
-0.0885215
-0.0996974
-0.107331
-0.111148
-0.111148
-0.107332
-0.0996995
-0.0885244
-0.0747118
-0.0590612
-0.041824
-0.02424
-0.00790118
0.00663337
0.0190552
0.0280528
0.0330186
0.0345982
0.0340473
0.0312834
0.0260968
0.0207328
0.0176317
0.0152325
0.0125814
0.0127068
0.0167561
0.0225435
0.0286128
0.03588
0.0446134
0.052348
0.0550159
0.0518808
0.0435156
0.0286544
0.00693619
-0.0186861
-0.0424052
-0.0600559
-0.0719427
-0.0812023
-0.0896051
-0.0954317
-0.0933596
-0.0776005
-0.0476212
-0.0112345
0.0174494
0.0271018
0.0177486
0.00104507
-0.00846894
-0.00492359
-0.00535505
-0.0094856
0.000161446
0.017869
0.0291699
0.0225378
-0.00226733
-0.0347123
-0.061631
-0.0754643
-0.0760975
-0.0683851
-0.0576332
-0.0464968
-0.0339543
-0.0172004
0.00473598
0.0286536
0.049378
0.0644684
0.0735506
0.0768253
0.073673
0.0656054
0.057405
0.051323
0.0461809
0.0412166
0.0385563
0.0396849
0.0426302
0.0442636
0.0457546
0.0485976
0.050195
0.0486546
0.0451246
0.0399292
0.0317354
0.020573
0.00749945
-0.00661112
-0.0217258
-0.0372263
-0.0518986
-0.0650077
-0.0765449
-0.0858558
-0.0921848
-0.095325
-0.0953259
-0.0921873
-0.0858597
-0.0765499
-0.0650135
-0.0519046
-0.037232
-0.0217305
-0.00661424
0.00749832
0.0205741
0.0317385
0.039934
0.0451305
0.0486607
0.0502006
0.0486021
0.0457576
0.044265
0.0426302
0.0396837
0.0385543
0.0412145
0.0461789
0.0513212
0.0574036
0.0656048
0.073673
0.0768255
0.0735507
0.0644686
0.0493786
0.0286544
0.00473651
-0.0172003
-0.0339544
-0.046497
-0.0576329
-0.0683841
-0.0760959
-0.0754629
-0.0616305
-0.0347126
-0.00226768
0.0225381
0.0291706
0.0178693
0.000160916
-0.00948656
-0.00535553
-0.00586991
-0.0110403
-0.00234606
0.0147627
0.0264156
0.0217823
0.000617416
-0.0275778
-0.0511348
-0.0632745
-0.0633932
-0.0551393
-0.0432469
-0.0307405
-0.0172854
-0.000688838
0.0203701
0.043515
0.0644684
0.0813517
0.0928618
0.0978942
0.0956358
0.0882728
0.0812018
0.0765451
0.0724121
0.0684487
0.0673202
0.0696905
0.072959
0.0740649
0.0740948
0.0742349
0.071874
0.0655986
0.0575553
0.0483993
0.0368632
0.0236819
0.0103772
-0.00263801
-0.0156086
-0.0279564
-0.038886
-0.0481435
-0.0560463
-0.0623092
-0.0664265
-0.0683498
-0.0683511
-0.0664299
-0.0623144
-0.0560528
-0.0481507
-0.0388931
-0.0279629
-0.015614
-0.00264178
0.0103754
0.0236823
0.0368657
0.0484035
0.0575608
0.0656046
0.0718799
0.07424
0.0740986
0.0740674
0.0729601
0.0696906
0.0673195
0.0684476
0.0724109
0.0765438
0.0812006
0.0882721
0.0956356
0.097894
0.0928615
0.0813516
0.0644686
0.0435156
0.0203705
-0.00068883
-0.0172856
-0.0307405
-0.0432462
-0.0551378
-0.0633913
-0.0632731
-0.0511344
-0.0275782
0.000617143
0.0217829
0.0264167
0.0147633
-0.00234645
-0.0110413
-0.00587041
-0.00685449
-0.0141678
-0.00790348
0.00687453
0.0173175
0.0136744
-0.00410376
-0.0276402
-0.0471771
-0.0571487
-0.0568135
-0.0486585
-0.0364361
-0.0230293
-0.0085823
0.00836833
0.029103
0.0518803
0.0735506
0.0928618
0.107696
0.11567
0.115577
0.110038
0.104726
0.101557
0.0981862
0.0948221
0.0944837
0.097108
0.0998051
0.0998165
0.098072
0.0953728
0.0892107
0.078643
0.066629
0.0540749
0.0398497
0.0252776
0.0122202
0.000670989
-0.00976037
-0.0185461
-0.025289
-0.0301071
-0.033607
-0.036037
-0.0373118
-0.0376591
-0.0376604
-0.0373154
-0.0360425
-0.0336137
-0.0301143
-0.025296
-0.0185524
-0.00976571
0.000667001
0.0122178
0.0252769
0.0398507
0.0540775
0.0666329
0.0786479
0.089216
0.0953781
0.0980767
0.0998204
0.0998082
0.0971101
0.0944848
0.0948224
0.0981859
0.101556
0.104725
0.110037
0.115576
0.115669
0.107695
0.0928615
0.0735507
0.0518808
0.0291032
0.008368
-0.00858276
-0.0230294
-0.0364352
-0.0486569
-0.0568118
-0.0571477
-0.0471772
-0.0276409
-0.004104
0.0136752
0.017319
0.00687548
-0.00790373
-0.0141688
-0.00685501
-0.00848983
-0.019291
-0.0169037
-0.00587365
0.0022441
-0.00105135
-0.0154865
-0.0338371
-0.0484713
-0.0553229
-0.0539616
-0.0459557
-0.0338734
-0.020066
-0.0048171
0.0125885
0.0329672
0.0550155
0.0768253
0.0978942
0.11567
0.126648
0.129103
0.125914
0.122623
0.120821
0.117966
0.114786
0.114376
0.11607
0.116993
0.115052
0.111213
0.105904
0.0967991
0.0833748
0.0690451
0.0547302
0.0394273
0.0248444
0.0129766
0.00345888
-0.0040486
-0.00903376
-0.0115414
-0.0120175
-0.0111905
-0.00980537
-0.00830482
-0.00718614
-0.00718705
-0.00830749
-0.00980955
-0.0111958
-0.0120234
-0.0115473
-0.00903946
-0.00405374
0.00345466
0.0129734
0.0248422
0.0394263
0.0547306
0.0690467
0.0833777
0.0968032
0.105909
0.111219
0.115057
0.116998
0.116074
0.114379
0.114787
0.117966
0.12082
0.122622
0.125913
0.129102
0.126648
0.115669
0.0978939
0.0768255
0.0550159
0.0329672
0.0125879
-0.00481777
-0.0200661
-0.0338726
-0.0459543
-0.0539604
-0.0553226
-0.048472
-0.0338381
-0.0154866
-0.00105023
0.00224584
-0.00587253
-0.0169039
-0.019292
-0.0084904
-0.0104956
-0.025509
-0.0276643
-0.0209008
-0.0154322
-0.0185538
-0.0296919
-0.042758
-0.0521762
-0.055434
-0.052749
-0.0450882
-0.0338858
-0.0206912
-0.00549698
0.0118281
0.0314538
0.052348
0.073673
0.0956358
0.115577
0.129103
0.134109
0.13367
0.132762
0.132513
0.130364
0.127388
0.126504
0.126512
0.124751
0.120167
0.114005
0.106346
0.0952451
0.0806349
0.0659312
0.0517267
0.0371031
0.0239867
0.0143
0.00734497
0.0029961
0.00181421
0.00317487
0.00620687
0.0102861
0.0144394
0.0177551
0.0196671
0.0196669
0.0177543
0.0144376
0.0102834
0.00620339
0.00317064
0.00180942
0.00299126
0.00734049
0.0142959
0.023983
0.0371002
0.0517249
0.0659306
0.0806357
0.0952476
0.10635
0.11401
0.120173
0.124757
0.126517
0.126508
0.12739
0.130365
0.132513
0.132761
0.133669
0.134108
0.129102
0.115576
0.0956356
0.073673
0.052348
0.0314533
0.0118271
-0.00549777
-0.0206912
-0.0338849
-0.045087
-0.0527483
-0.0554343
-0.0521773
-0.042759
-0.0296918
-0.0185524
-0.0154303
-0.0208997
-0.0276647
-0.0255102
-0.0104962
-0.0123375
-0.0312386
-0.0376165
-0.0348167
-0.0318145
-0.0348623
-0.0431788
-0.0516877
-0.0565515
-0.0566526
-0.0529882
-0.0462491
-0.0369261
-0.0255247
-0.0113098
0.00555213
0.0245415
0.0446143
0.0656054
0.0882728
0.110038
0.125914
0.13367
0.13639
0.138061
0.139321
0.137843
0.134982
0.133354
0.131193
0.126105
0.118319
0.109477
0.0993913
0.0867547
0.0720487
0.0582795
0.0454647
0.0327442
0.0221394
0.0152953
0.0111207
0.00975157
0.0118832
0.0162213
0.0213441
0.026935
0.0321667
0.0358669
0.0376681
0.0376685
0.0358677
0.0321674
0.0269351
0.0213432
0.0162191
0.0118798
0.00974738
0.0111161
0.0152905
0.0221346
0.0327399
0.0454613
0.0582771
0.0720478
0.0867558
0.0993944
0.109482
0.118325
0.126111
0.131198
0.133359
0.134985
0.137845
0.139322
0.138061
0.136389
0.133669
0.125913
0.110037
0.0882721
0.0656048
0.0446134
0.0245401
0.00555061
-0.0113107
-0.0255245
-0.0369251
-0.0462481
-0.0529879
-0.0566533
-0.0565526
-0.0516883
-0.0431781
-0.0348604
-0.0318123
-0.0348156
-0.0376169
-0.0312398
-0.0123382
-0.0139175
-0.0361612
-0.0461802
-0.0467586
-0.0458178
-0.0488529
-0.0550577
-0.0602295
-0.0617902
-0.0595954
-0.0552901
-0.0495667
-0.0423075
-0.0329897
-0.0199751
-0.00339587
0.0156496
0.0358817
0.057405
0.0812018
0.104726
0.122623
0.132762
0.138061
0.14138
0.142937
0.140896
0.137042
0.133752
0.128718
0.119798
0.108557
0.0969426
0.0844768
0.0705823
0.0563546
0.0442314
0.0336393
0.0237415
0.0164973
0.0130815
0.0118502
0.0130508
0.0175656
0.0236048
0.0292896
0.0347529
0.0395958
0.0426246
0.043767
0.0437676
0.0426262
0.0395979
0.0347549
0.029291
0.0236048
0.0175641
0.0130479
0.011846
0.0130763
0.0164916
0.0237361
0.0336346
0.0442277
0.0563524
0.070582
0.0844783
0.0969456
0.108561
0.119803
0.128723
0.133757
0.137047
0.140899
0.142939
0.141381
0.138061
0.132761
0.122622
0.104725
0.0812006
0.0574036
0.03588
0.0156476
-0.00339768
-0.019976
-0.0329895
-0.0423067
-0.0495662
-0.0552905
-0.0595966
-0.0617914
-0.0602297
-0.0550564
-0.0488505
-0.0458152
-0.0467571
-0.0461802
-0.0361622
-0.0139181
-0.0157228
-0.0416507
-0.0553631
-0.0589917
-0.0595436
-0.062089
-0.0661071
-0.0682986
-0.0669829
-0.0625921
-0.0572485
-0.0519105
-0.0462865
-0.0390284
-0.0275488
-0.0115234
0.00769982
0.0286151
0.051323
0.0765451
0.101557
0.120821
0.132513
0.139321
0.142937
0.143124
0.138695
0.132167
0.125897
0.117258
0.104413
0.0901176
0.0763323
0.0621176
0.0475033
0.034194
0.0241355
0.016319
0.0099202
0.00667184
0.00716073
0.00901075
0.0122402
0.0178762
0.0241284
0.0290921
0.0334038
0.0371594
0.0393142
0.0399074
0.0399078
0.0393154
0.0371615
0.0334065
0.0290947
0.0241304
0.0178768
0.012239
0.00900752
0.0071558
0.00666599
0.00991424
0.0163135
0.0241308
0.0341906
0.0475013
0.0621171
0.0763333
0.0901201
0.104417
0.117263
0.125902
0.132173
0.1387
0.143128
0.142939
0.139322
0.132513
0.12082
0.101556
0.0765438
0.0513212
0.0286128
0.00769754
-0.0115251
-0.0275495
-0.0390282
-0.0462861
-0.0519108
-0.0572499
-0.0625939
-0.0669842
-0.0682984
-0.0661053
-0.0620861
-0.0595407
-0.0589899
-0.0553627
-0.0416513
-0.0157232
-0.0178673
-0.0480481
-0.0656792
-0.0720925
-0.0734605
-0.0747001
-0.0759385
-0.0749141
-0.0706019
-0.0636916
-0.056586
-0.0507144
-0.0460858
-0.040867
-0.0315992
-0.0171212
0.00143722
0.0225458
0.0461809
0.0724121
0.0981862
0.117966
0.130364
0.137843
0.140896
0.138695
0.130784
0.120655
0.110843
0.0987077
0.0827918
0.0667486
0.0522869
0.0378636
0.0238575
0.0123793
0.0049452
0.00033392
-0.00222043
-0.00134809
0.00296794
0.00765972
0.0122111
0.0176604
0.022781
0.0261985
0.0289777
0.0315733
0.0331924
0.0337073
0.0337073
0.0331929
0.0315748
0.0289801
0.0262014
0.022784
0.0176627
0.0122117
0.00765803
0.00296429
-0.00135302
-0.00222603
0.000328221
0.00493993
0.0123748
0.0238539
0.0378611
0.0522857
0.066749
0.082794
0.0987115
0.110848
0.12066
0.13079
0.1387
0.140899
0.137845
0.130365
0.117966
0.0981859
0.0724108
0.0461789
0.0225435
0.00143505
-0.0171226
-0.0315996
-0.0408668
-0.0460859
-0.0507155
-0.056588
-0.0636938
-0.0706031
-0.0749136
-0.0759364
-0.074697
-0.0734574
-0.0720905
-0.0656785
-0.0480483
-0.0178675
-0.0197238
-0.0535869
-0.0745468
-0.083095
-0.084613
-0.0840596
-0.0824875
-0.0787506
-0.0722585
-0.0635382
-0.0548608
-0.0481019
-0.0438803
-0.040331
-0.0334828
-0.0212313
-0.0040836
0.0167585
0.0412166
0.0684487
0.0948221
0.114786
0.127388
0.134982
0.137042
0.132167
0.120655
0.106876
0.0935617
0.0783447
0.0602627
0.0435622
0.0296174
0.0163404
0.00422161
-0.00455998
-0.00899869
-0.0103831
-0.00944971
-0.0053449
0.00156787
0.00800241
0.0129448
0.017294
0.020619
0.0223249
0.023657
0.0251864
0.026442
0.0270927
0.0270927
0.0264424
0.0251876
0.0236588
0.0223272
0.0206218
0.0172968
0.0129466
0.0080026
0.0015665
-0.00534775
-0.00945399
-0.0103884
-0.00900425
-0.00456535
0.00421668
0.0163363
0.0296146
0.043561
0.0602632
0.0783471
0.0935657
0.106881
0.12066
0.132173
0.137047
0.134985
0.12739
0.114787
0.0948224
0.0684476
0.0412145
0.0167561
-0.00408558
-0.0212325
-0.0334831
-0.0403312
-0.0438811
-0.0481038
-0.0548632
-0.0635402
-0.0722591
-0.0787495
-0.0824849
-0.0840564
-0.0846098
-0.0830927