/*--------------------------------*- C++ -*----------------------------------*\
  =========                 |
  \\      /  F ield         | OpenFOAM: The Open Source CFD Toolbox
   \\    /   O peration     | Website:  https://openfoam.org
    \\  /    A nd           | Version:  10
     \\/     M anipulation  |
\*---------------------------------------------------------------------------*/
FoamFile
{
    format      ascii;
    class       volScalarField;
    location    "49";
    object      h_0;
}
// * * * * * * * * * * * * * * * * * * * * * * * * * * * * * * * * * * * * * //

dimensions      [0 1 0 0 0 0 0];

internalField   nonuniform List<scalar> 
10000
(
0.00448919
0.0119373
0.0158859
0.016719
0.0165347
0.0172081
0.0188205
0.0198394
0.0186706
0.015078
0.0102606
0.00569766
0.00216143
-0.000358548
-0.00215032
-0.00340288
-0.00424948
-0.00484178
-0.00530267
-0.00584866
-0.00686081
-0.008524
-0.0105651
-0.0124453
-0.0140533
-0.0158724
-0.018026
-0.0198948
-0.0209886
-0.0215258
-0.0218249
-0.0215956
-0.0202772
-0.0180329
-0.0154577
-0.0125173
-0.00891633
-0.00502764
-0.00139303
0.00199319
0.00521906
0.00802372
0.0101927
0.0118483
0.0131226
0.0139789
0.0144504
0.0147125
0.0148605
0.0149114
0.0149113
0.0148602
0.0147119
0.0144496
0.013978
0.0131216
0.0118472
0.0101916
0.00802274
0.00521823
0.00199258
-0.00139336
-0.00502766
-0.00891607
-0.0125167
-0.015457
-0.018032
-0.0202763
-0.0215947
-0.0218242
-0.0215253
-0.0209883
-0.0198948
-0.0180262
-0.0158728
-0.0140538
-0.012446
-0.0105657
-0.00852456
-0.00686132
-0.00584915
-0.00530314
-0.00484221
-0.00424988
-0.00340326
-0.00215065
-0.000358795
0.00216129
0.00569768
0.0102609
0.0150787
0.0186716
0.0198406
0.0188216
0.0172091
0.0165358
0.0167203
0.0158873
0.0119385
0.00448965
0.0119373
0.031417
0.0408901
0.0416125
0.0398287
0.0411036
0.0457376
0.0492561
0.0469335
0.0379522
0.0256518
0.0142116
0.0057855
0.000246564
-0.00335635
-0.00568224
-0.00718002
-0.00830309
-0.00939658
-0.0110286
-0.0142189
-0.0194029
-0.0257018
-0.0315199
-0.0365023
-0.0420137
-0.0484228
-0.0539851
-0.0573332
-0.0591482
-0.060356
-0.0601383
-0.0569169
-0.0511375
-0.0444411
-0.0367016
-0.0270561
-0.0165185
-0.00659117
0.00275983
0.0117743
0.0197035
0.0259326
0.030785
0.0345912
0.0372258
0.0387654
0.0396805
0.0402202
0.0404274
0.040427
0.0402191
0.0396789
0.0387632
0.0372231
0.0345882
0.0307819
0.0259295
0.0197008
0.011772
0.00275815
-0.00659205
-0.0165185
-0.0270553
-0.0367001
-0.0444391
-0.0511351
-0.0569144
-0.060136
-0.060354
-0.0591466
-0.0573324
-0.0539848
-0.048423
-0.0420142
-0.0365032
-0.0315211
-0.0257029
-0.0194039
-0.0142198
-0.0110295
-0.0093975
-0.00830398
-0.00718091
-0.00568317
-0.00335722
0.000245851
0.00578502
0.0142115
0.0256524
0.0379538
0.0469359
0.0492588
0.04574
0.0411056
0.0398309
0.0416154
0.0408935
0.03142
0.0119385
0.0158859
0.0408901
0.050605
0.0473369
0.0412306
0.0413221
0.0482599
0.0550109
0.0539651
0.0434877
0.0284392
0.0150876
0.006594
0.0025339
0.00112216
0.000991598
0.00124
0.00112619
0.000142805
-0.00245414
-0.00806884
-0.0171153
-0.0279472
-0.0379805
-0.0465824
-0.0557522
-0.0660485
-0.0749221
-0.0804423
-0.0837868
-0.0863701
-0.0869903
-0.0833896
-0.0761962
-0.0677114
-0.0576567
-0.0446967
-0.0302179
-0.0163458
-0.00296883
0.0102418
0.0221486
0.0318257
0.0396856
0.0460859
0.0507691
0.0537977
0.0557805
0.0570175
0.0575518
0.0575512
0.0570158
0.0557778
0.0537941
0.0507648
0.0460812
0.0396808
0.031821
0.0221445
0.0102385
-0.00297117
-0.016347
-0.0302179
-0.0446956
-0.0576546
-0.0677085
-0.0761929
-0.0833862
-0.086987
-0.086367
-0.0837843
-0.0804406
-0.074921
-0.0660478
-0.0557518
-0.0465825
-0.0379809
-0.0279475
-0.0171155
-0.00806905
-0.00245449
0.000142316
0.0011256
0.00123923
0.000990606
0.00112106
0.00253287
0.00659315
0.0150872
0.0284395
0.0434893
0.0539676
0.0550134
0.0482617
0.0413231
0.0412319
0.0473395
0.0506088
0.0408936
0.0158874
0.016719
0.0416125
0.0473369
0.0372267
0.0247118
0.0217988
0.0296342
0.0392918
0.0408271
0.0316758
0.0175452
0.00612248
0.00125782
0.00218948
0.00622849
0.0110786
0.0152298
0.0176406
0.0176519
0.0144631
0.00654552
-0.00620675
-0.0212586
-0.0352061
-0.0471264
-0.0592827
-0.0723103
-0.0832802
-0.0901168
-0.0944796
-0.0980872
-0.099577
-0.0965191
-0.089631
-0.0813763
-0.071291
-0.0577555
-0.0421973
-0.0268923
-0.0115865
0.00406401
0.0186921
0.03122
0.0420169
0.0512553
0.0584924
0.0637039
0.0674221
0.0698478
0.0709786
0.0709778
0.0698456
0.0674185
0.0636992
0.058487
0.0512496
0.0420111
0.0312146
0.0186875
0.00406043
-0.0115889
-0.0268934
-0.042197
-0.0577542
-0.0712887
-0.0813732
-0.0896275
-0.0965155
-0.0995734
-0.0980837
-0.0944765
-0.0901141
-0.0832779
-0.0723082
-0.0592808
-0.0471249
-0.0352049
-0.0212575
-0.00620561
0.00654651
0.0144637
0.0176522
0.0176407
0.0152295
0.0110778
0.0062275
0.00218841
0.0012568
0.00612172
0.0175451
0.0316768
0.0408287
0.039293
0.0296341
0.0217976
0.0247108
0.0372275
0.0473396
0.0416155
0.0167203
0.0165347
0.0398287
0.0412306
0.0247118
0.00592406
-0.000995691
0.00571579
0.0161423
0.018875
0.0105903
-0.00267195
-0.0123069
-0.0138109
-0.00799507
0.00175486
0.0121689
0.0210087
0.0268462
0.0287877
0.0259469
0.0168318
0.00178028
-0.0158838
-0.0322507
-0.0461764
-0.0597703
-0.0735676
-0.0846479
-0.0911885
-0.0952233
-0.0985278
-0.0997974
-0.0969677
-0.0908175
-0.0835021
-0.0744093
-0.0619135
-0.0472086
-0.0322325
-0.0165404
0.00016292
0.0164794
0.0313922
0.0451294
0.0575012
0.0678414
0.0759772
0.0821513
0.0863012
0.0883189
0.0883181
0.0862988
0.0821475
0.0759723
0.0678357
0.0574954
0.0451238
0.0313871
0.0164753
0.000159974
-0.0165421
-0.0322331
-0.047208
-0.061912
-0.0744071
-0.0834993
-0.0908143
-0.0969644
-0.099794
-0.0985243
-0.0952198
-0.0911851
-0.0846448
-0.0735646
-0.0597673
-0.0461737
-0.0322485
-0.0158819
0.00178204
0.0168332
0.0259479
0.0287883
0.0268465
0.0210087
0.0121684
0.00175407
-0.00799597
-0.0138118
-0.0123076
-0.00267208
0.0105909
0.0188759
0.0161424
0.00571408
-0.00099884
0.00592113
0.0247108
0.041232
0.0398309
0.0165358
0.0172081
0.0411036
0.0413221
0.0217988
-0.000995691
-0.0119008
-0.00851681
-0.00073274
-0.00032207
-0.0109608
-0.0265964
-0.0380277
-0.0399318
-0.0326348
-0.0197401
-0.00532592
0.00761397
0.0171826
0.0221179
0.0212521
0.0131058
-0.00161371
-0.0191069
-0.0353888
-0.049284
-0.0623733
-0.0748521
-0.0841198
-0.0889163
-0.0913833
-0.0930018
-0.09266
-0.0891165
-0.0832333
-0.0764838
-0.0681978
-0.0570928
-0.0440031
-0.030149
-0.0149003
0.00193319
0.0191154
0.0359087
0.0523664
0.0678585
0.0814963
0.092935
0.10198
0.108179
0.111261
0.11126
0.108177
0.101977
0.0929307
0.0814915
0.0678538
0.052362
0.0359051
0.0191127
0.00193152
-0.014901
-0.0301488
-0.0440021
-0.0570912
-0.0681958
-0.0764814
-0.0832306
-0.0891136
-0.092657
-0.0929986
-0.0913799
-0.0889128
-0.0841165
-0.0748489
-0.0623703
-0.0492815
-0.0353869
-0.0191055
-0.00161257
0.0131066
0.0212526
0.0221181
0.0171826
0.00761371
-0.00532647
-0.0197408
-0.0326355
-0.0399325
-0.0380281
-0.0265962
-0.0109599
-0.000320981
-0.000732606
-0.00851853
-0.0119041
-0.000998843
0.0217976
0.0413232
0.0411057
0.0172091
0.0188205
0.0457376
0.0482599
0.0296342
0.00571579
-0.00851681
-0.0100984
-0.00792363
-0.0130579
-0.0290973
-0.0503069
-0.0672885
-0.0737891
-0.0691064
-0.056466
-0.0404056
-0.0245786
-0.0113907
-0.00259298
0.000155807
-0.0046418
-0.0160623
-0.0302943
-0.0437778
-0.0555847
-0.0665175
-0.0762436
-0.0827088
-0.0853687
-0.0861067
-0.0857509
-0.0833927
-0.0788188
-0.0729721
-0.0663987
-0.0584773
-0.0485931
-0.0372454
-0.0247529
-0.0103945
0.00585106
0.023043
0.0408748
0.0592455
0.0771325
0.0934812
0.107806
0.119449
0.127532
0.131595
0.131594
0.12753
0.119447
0.107803
0.0934784
0.0771299
0.0592433
0.0408731
0.0230421
0.00585079
-0.0103942
-0.0247522
-0.0372443
-0.0485916
-0.0584756
-0.0663968
-0.0729699
-0.0788164
-0.0833901
-0.0857482
-0.0861038
-0.0853658
-0.0827062
-0.0762415
-0.0665157
-0.0555834
-0.0437771
-0.0302942
-0.0160625
-0.00464204
0.000155514
-0.00259337
-0.0113911
-0.0245792
-0.0404063
-0.0564669
-0.0691073
-0.0737897
-0.0672887
-0.0503064
-0.0290959
-0.0130562
-0.00792252
-0.0100988
-0.00851856
0.00571405
0.0296341
0.0482617
0.0457401
0.0188216
0.0198394
0.0492561
0.0550109
0.0392918
0.0161423
-0.00073274
-0.00792363
-0.0125424
-0.0240704
-0.0457477
-0.0726637
-0.0958835
-0.108424
-0.10829
-0.0978372
-0.0816764
-0.0639766
-0.0476299
-0.0348748
-0.0278744
-0.0280331
-0.0343039
-0.0432855
-0.05224
-0.0607497
-0.068758
-0.0753214
-0.0791046
-0.0803477
-0.0803818
-0.079109
-0.0757166
-0.0709428
-0.0657631
-0.0596745
-0.0521528
-0.0434386
-0.0338107
-0.0227241
-0.00954467
0.00549955
0.0218022
0.0394999
0.0583759
0.0771651
0.0947655
0.110632
0.123763
0.132952
0.137595
0.137595
0.132952
0.123763
0.110632
0.0947654
0.0771652
0.0583762
0.0395004
0.0218029
0.0055004
-0.00954379
-0.0227232
-0.0338097
-0.0434375
-0.0521517
-0.0596731
-0.0657614
-0.070941
-0.0757147
-0.0791072
-0.0803799
-0.080346
-0.0791034
-0.0753209
-0.0687579
-0.0607499
-0.0522406
-0.0432864
-0.0343049
-0.0280338
-0.0278748
-0.0348751
-0.0476303
-0.0639772
-0.0816772
-0.0978383
-0.108292
-0.108425
-0.0958838
-0.0726632
-0.0457462
-0.0240682
-0.0125404
-0.00792255
-0.000732665
0.0161424
0.039293
0.0550134
0.0492589
0.0198406
0.0186706
0.0469335
0.0539651
0.0408271
0.018875
-0.00032207
-0.0130579
-0.0240704
-0.0405474
-0.0652168
-0.0945488
-0.12093
-0.137262
-0.140424
-0.131699
-0.115488
-0.0963221
-0.0774866
-0.0616234
-0.0512264
-0.0473536
-0.0487286
-0.0525004
-0.0569067
-0.0621421
-0.0673286
-0.0709541
-0.0725996
-0.0733366
-0.0738136
-0.0729379
-0.0699217
-0.0662311
-0.0627565
-0.0579426
-0.0513221
-0.0439862
-0.0360849
-0.0264143
-0.0146245
-0.00127037
0.0133301
0.0296124
0.0472569
0.064961
0.0817371
0.097093
0.109922
0.118926
0.123481
0.123481
0.118927
0.109924
0.0970956
0.0817399
0.0649639
0.0472596
0.0296148
0.0133322
-0.00126874
-0.0146232
-0.0264134
-0.0360841
-0.0439855
-0.0513214
-0.0579419
-0.0627556
-0.0662301
-0.069921
-0.0729374
-0.0738133
-0.0733366
-0.0726003
-0.0709553
-0.0673299
-0.0621433
-0.0569079
-0.0525015
-0.0487293
-0.0473537
-0.051226
-0.0616229
-0.0774864
-0.0963222
-0.115489
-0.1317
-0.140425
-0.137263
-0.120931
-0.0945488
-0.0652158
-0.0405456
-0.0240682
-0.0130562
-0.000321038
0.0188758
0.0408287
0.0539676
0.046936
0.0186717
0.015078
0.0379522
0.0434877
0.0316758
0.0105903
-0.0109608
-0.0290973
-0.0457477
-0.0652168
-0.0895407
-0.116949
-0.141958
-0.158126
-0.161601
-0.152619
-0.13519
-0.11413
-0.0931576
-0.0753239
-0.0631954
-0.0571311
-0.0553725
-0.0555295
-0.0567565
-0.0596972
-0.0627172
-0.063862
-0.0637287
-0.0641999
-0.0653377
-0.0653101
-0.0634082
-0.0615396
-0.0603647
-0.0574572
-0.0523405
-0.0467371
-0.0406527
-0.0324963
-0.0223519
-0.0111212
0.00109004
0.0147737
0.0294734
0.0440527
0.0578051
0.0703955
0.0808877
0.0882202
0.0919199
0.0919208
0.0882228
0.0808917
0.0704004
0.0578105
0.0440581
0.0294784
0.0147779
0.00109335
-0.0111188
-0.0223503
-0.0324953
-0.0406521
-0.0467368
-0.0523403
-0.0574572
-0.0603648
-0.0615399
-0.063409
-0.0653113
-0.0653391
-0.0642016
-0.0637307
-0.0638642
-0.062719
-0.0596984
-0.0567572
-0.0555299
-0.0553722
-0.0571301
-0.0631939
-0.0753225
-0.0931568
-0.11413
-0.13519
-0.152621
-0.161603
-0.158127
-0.141959
-0.11695
-0.0895405
-0.0652158
-0.0457462
-0.0290959
-0.0109599
0.0105909
0.0316768
0.0434893
0.0379538
0.0150787
0.0102606
0.0256518
0.0284392
0.0175452
-0.00267195
-0.0265964
-0.0503069
-0.0726637
-0.0945488
-0.116949
-0.139802
-0.160178
-0.172949
-0.173992
-0.162678
-0.142505
-0.118556
-0.0951447
-0.0758569
-0.0632025
-0.0566806
-0.0538909
-0.0527013
-0.052915
-0.0551957
-0.0571785
-0.0565691
-0.0548703
-0.0546611
-0.0556327
-0.0556498
-0.0542666
-0.0536369
-0.0541298
-0.0528378
-0.049262
-0.0454183
-0.0410814
-0.0345365
-0.0263401
-0.0176555
-0.00840965
0.00172085
0.0120923
0.0219012
0.0308582
0.0388412
0.0453024
0.0497175
0.0519286
0.0519298
0.0497209
0.0453077
0.0388478
0.0308655
0.0219084
0.012099
0.00172661
-0.00840502
-0.0176521
-0.0263376
-0.034535
-0.0410806
-0.0454182
-0.0492624
-0.0528387
-0.0541312
-0.0536387
-0.0542689
-0.0556525
-0.0556354
-0.0546638
-0.0548728
-0.0565712
-0.0571799
-0.0551961
-0.0529147
-0.0527006
-0.0538897
-0.0566789
-0.0632006
-0.0758553
-0.0951439
-0.118556
-0.142506
-0.16268
-0.173994
-0.172951
-0.16018
-0.139804
-0.11695
-0.0945488
-0.0726632
-0.0503064
-0.0265962
-0.00267207
0.0175452
0.0284396
0.0256524
0.0102609
0.00569766
0.0142116
0.0150876
0.00612248
-0.0123069
-0.0380277
-0.0672885
-0.0958835
-0.12093
-0.141958
-0.160178
-0.175191
-0.183579
-0.18128
-0.166948
-0.143372
-0.115764
-0.0892073
-0.0680504
-0.0548806
-0.04849
-0.0458725
-0.0450263
-0.0461407
-0.0494172
-0.0517698
-0.0506077
-0.0480011
-0.0469196
-0.0467807
-0.0455734
-0.0433899
-0.0425268
-0.043057
-0.042138
-0.0393864
-0.0368161
-0.0339042
-0.0290309
-0.0231564
-0.0175253
-0.0118354
-0.00602325
-0.000923683
0.00311433
0.00629719
0.00870597
0.0102599
0.011132
0.0115506
0.0115518
0.0111355
0.0102655
0.00871302
0.0063051
0.00312246
-0.000915864
-0.00601617
-0.0118294
-0.0175206
-0.023153
-0.0290287
-0.0339032
-0.0368163
-0.0393875
-0.04214
-0.0430597
-0.04253
-0.0433934
-0.0455769
-0.0467838
-0.0469221
-0.048003
-0.0506089
-0.0517701
-0.0494168
-0.0461396
-0.0450251
-0.0458711
-0.0484884
-0.054879
-0.0680493
-0.0892071
-0.115764
-0.143373
-0.16695
-0.181282
-0.183582
-0.175193
-0.16018
-0.141959
-0.120931
-0.0958838
-0.0672887
-0.0380281
-0.0123076
0.00612174
0.0150872
0.0142115
0.0056977
0.00216143
0.0057855
0.006594
0.00125782
-0.0138109
-0.0399318
-0.0737891
-0.108424
-0.137262
-0.158126
-0.172949
-0.183579
-0.188455
-0.183757
-0.16749
-0.141392
-0.110483
-0.0806616
-0.0571828
-0.0429165
-0.0362496
-0.0338182
-0.0338795
-0.0368821
-0.0422239
-0.0462032
-0.0460118
-0.0437808
-0.0423794
-0.0408904
-0.0377357
-0.0337328
-0.0311518
-0.0297954
-0.0274994
-0.0242806
-0.021974
-0.0198113
-0.016463
-0.0131837
-0.0110814
-0.00951545
-0.00859056
-0.00923873
-0.0112671
-0.0139581
-0.0170815
-0.020321
-0.0228563
-0.0241382
-0.0241372
-0.0228533
-0.0203161
-0.0170751
-0.0139506
-0.011259
-0.00923051
-0.00858269
-0.00950845
-0.0110756
-0.0131794
-0.0164603
-0.0198104
-0.0219747
-0.0242825
-0.0275023
-0.0297991
-0.0311557
-0.0337365
-0.037739
-0.040893
-0.0423811
-0.0437816
-0.0460119
-0.0462028
-0.0422231
-0.0368811
-0.0338785
-0.0338174
-0.0362488
-0.0429158
-0.0571825
-0.080662
-0.110484
-0.141394
-0.167492
-0.183759
-0.188457
-0.183582
-0.172951
-0.158127
-0.137263
-0.108425
-0.0737897
-0.0399325
-0.0138117
0.00125681
0.00659316
0.00578502
0.0021613
-0.000358548
0.000246564
0.0025339
0.00218948
-0.00799507
-0.0326348
-0.0691064
-0.10829
-0.140424
-0.161601
-0.173992
-0.18128
-0.183757
-0.178132
-0.161896
-0.135438
-0.103087
-0.0712498
-0.0459033
-0.0302985
-0.02278
-0.0199981
-0.0207181
-0.0255514
-0.0330082
-0.0390626
-0.0409014
-0.0403226
-0.0396359
-0.0374282
-0.032607
-0.0267179
-0.0217605
-0.017303
-0.0122989
-0.00743107
-0.00430302
-0.00210878
1.13726e-05
0.000618145
-0.0010895
-0.00404836
-0.0083242
-0.0147531
-0.0225558
-0.0305462
-0.038404
-0.0455657
-0.0507958
-0.0533981
-0.0533974
-0.0507937
-0.0455622
-0.0383991
-0.03054
-0.0225487
-0.0147455
-0.00831645
-0.00404116
-0.00108338
0.000622794
1.42128e-05
-0.00210789
-0.00430386
-0.00743324
-0.0123021
-0.0173067
-0.0217641
-0.0267209
-0.0326094
-0.0374299
-0.0396368
-0.0403228
-0.0409013
-0.0390624
-0.0330079
-0.0255512
-0.020718
-0.0199982
-0.02278
-0.0302986
-0.0459035
-0.0712504
-0.103088
-0.135439
-0.161898
-0.178134
-0.183759
-0.181282
-0.173994
-0.161603
-0.140425
-0.108292
-0.0691072
-0.0326355
-0.00799594
0.00218842
0.00253286
0.000245845
-0.000358787
-0.00215032
-0.00335635
0.00112216
0.00622849
0.00175486
-0.0197401
-0.056466
-0.0978372
-0.131699
-0.152619
-0.162678
-0.166948
-0.16749
-0.161896
-0.147328
-0.122699
-0.0912001
-0.0592542
-0.0332421
-0.016732
-0.00824255
-0.00468396
-0.00549079
-0.0113427
-0.0200414
-0.0276593
-0.0317155
-0.0335587
-0.0345995
-0.0328145
-0.0275413
-0.020944
-0.0144265
-0.0072629
0.00036279
0.00699118
0.0112487
0.0137471
0.0147503
0.0127387
0.00727119
-0.000196014
-0.00951664
-0.0212165
-0.0339741
-0.0462457
-0.057661
-0.0675404
-0.0745321
-0.0779844
-0.077984
-0.0745309
-0.0675383
-0.0576578
-0.0462414
-0.0339689
-0.0212105
-0.0095103
-0.000189876
0.00727659
0.0127429
0.0147531
0.0137482
0.0112483
0.00698974
0.000360593
-0.00726547
-0.0144289
-0.0209459
-0.0275426
-0.0328156
-0.0346002
-0.0335591
-0.0317159
-0.0276599
-0.0200423
-0.0113437
-0.00549158
-0.00468465
-0.00824304
-0.0167322
-0.0332422
-0.0592545
-0.0912006
-0.1227
-0.147329
-0.161898
-0.167492
-0.16695
-0.16268
-0.152621
-0.1317
-0.0978383
-0.0564668
-0.0197408
0.0017541
0.00622751
0.00112105
-0.00335723
-0.00215064
-0.00340288
-0.00568224
0.000991598
0.0110786
0.0121689
-0.00532592
-0.0404056
-0.0816764
-0.115488
-0.13519
-0.142505
-0.143372
-0.141392
-0.135438
-0.122699
-0.100881
-0.0718522
-0.0415555
-0.0164195
-5.14744e-05
0.00880339
0.0128255
0.0119339
0.00559539
-0.00341786
-0.011614
-0.0172279
-0.021315
-0.0242521
-0.023553
-0.0190183
-0.0132472
-0.00676766
0.00150414
0.0103056
0.0175448
0.0221591
0.0244678
0.0241042
0.0196059
0.0108674
-0.000430081
-0.0139113
-0.0296688
-0.0460073
-0.0612171
-0.0749041
-0.0863273
-0.0942409
-0.0981463
-0.0981462
-0.0942405
-0.0863266
-0.0749028
-0.0612152
-0.0460048
-0.0296656
-0.0139075
-0.000426179
0.0108711
0.0196092
0.0241068
0.0244697
0.0221602
0.0175452
0.0103055
0.00150364
-0.00676829
-0.0132478
-0.0190189
-0.023554
-0.0242532
-0.0213161
-0.0172293
-0.0116157
-0.00341967
0.00559388
0.0119329
0.0128249
0.00880304
-5.1474e-05
-0.0164193
-0.0415554
-0.0718522
-0.100881
-0.1227
-0.135439
-0.141394
-0.143373
-0.142506
-0.13519
-0.115489
-0.0816772
-0.0404063
-0.00532643
0.0121685
0.0110778
0.000990588
-0.00568318
-0.00340325
-0.00424948
-0.00718002
0.00124
0.0152298
0.0210087
0.00761397
-0.0245786
-0.0639766
-0.0963221
-0.11413
-0.118556
-0.115764
-0.110483
-0.103087
-0.0912001
-0.0718522
-0.0456977
-0.0178375
0.00553745
0.0210524
0.0296118
0.0333094
0.0316869
0.0247107
0.0157436
0.00772015
0.00144006
-0.00407672
-0.00824997
-0.00850471
-0.00520679
-0.0012104
0.00381927
0.0112749
0.0191498
0.0250885
0.0285184
0.0295406
0.0272522
0.0204583
0.00937376
-0.00435964
-0.0202934
-0.0381255
-0.05606
-0.0724834
-0.087028
-0.0988997
-0.107031
-0.111069
-0.111069
-0.107032
-0.0989003
-0.0870288
-0.0724842
-0.0560606
-0.0381257
-0.020293
-0.00435859
0.0093755
0.0204607
0.0272551
0.0295436
0.0285215
0.0250913
0.0191522
0.0112765
0.00382022
-0.00121011
-0.00520728
-0.0085061
-0.00825184
-0.00407869
0.0014379
0.00771785
0.0157416
0.0247093
0.0316864
0.0333093
0.0296119
0.0210528
0.005538
-0.017837
-0.0456974
-0.0718522
-0.0912006
-0.103088
-0.110484
-0.115764
-0.118556
-0.11413
-0.0963223
-0.0639772
-0.0245791
0.00761376
0.0210087
0.0152295
0.00123921
-0.00718092
-0.00424988
-0.00484178
-0.00830309
0.00112619
0.0176406
0.0268462
0.0171826
-0.0113907
-0.0476299
-0.0774866
-0.0931576
-0.0951447
-0.0892073
-0.0806616
-0.0712498
-0.0592542
-0.0415555
-0.0178375
0.00776734
0.0294467
0.0442013
0.0524147
0.0554152
0.0526657
0.0448725
0.036066
0.0287359
0.022659
0.0168667
0.012765
0.0125956
0.015248
0.0176736
0.0207862
0.0261625
0.0314059
0.0342576
0.0348613
0.0333225
0.0284221
0.0194689
0.00704563
-0.00749603
-0.0238475
-0.0414739
-0.0587637
-0.0744577
-0.0883127
-0.0995288
-0.107188
-0.111014
-0.111015
-0.107189
-0.0995309
-0.0883156
-0.0744612
-0.0587674
-0.0414773
-0.0238501
-0.00749755
0.00704561
0.0194706
0.0284252
0.0333267
0.0348661
0.0342625
0.0314102
0.0261659
0.0207883
0.0176744
0.0152475
0.0125939
0.0127626
0.0168643
0.0226566
0.0287336
0.0360643
0.0448717
0.0526657
0.0554156
0.0524152
0.0442019
0.0294474
0.00776804
-0.017837
-0.0415554
-0.0592546
-0.0712504
-0.080662
-0.0892071
-0.0951439
-0.0931568
-0.0774864
-0.0476303
-0.0113911
0.0171826
0.0268465
0.0176407
0.00112557
-0.008304
-0.0048422
-0.00530267
-0.00939658
0.000142805
0.0176519
0.0287877
0.0221179
-0.00259298
-0.0348748
-0.0616234
-0.0753239
-0.0758569
-0.0680504
-0.0571828
-0.0459033
-0.0332421
-0.0164195
0.00553745
0.0294467
0.0501279
0.0651071
0.0740405
0.0771948
0.0739694
0.0658324
0.0575559
0.0514261
0.0462958
0.0413354
0.0386211
0.0397087
0.0426682
0.0443344
0.045843
0.0487231
0.0504081
0.0489799
0.0455264
0.0403968
0.0322823
0.0211619
0.00807205
-0.00606396
-0.0212158
-0.0367933
-0.051554
-0.0647354
-0.0763431
-0.0857231
-0.0920968
-0.0952532
-0.0952541
-0.0920992
-0.0857269
-0.0763481
-0.0647412
-0.05156
-0.0367988
-0.0212204
-0.00606706
0.00807095
0.021163
0.0322855
0.0404016
0.0455322
0.048986
0.0504137
0.0487276
0.045846
0.0443357
0.0426681
0.0397074
0.0386191
0.0413333
0.0462938
0.0514243
0.0575545
0.0658318
0.0739695
0.0771951
0.0740407
0.0651073
0.0501285
0.0294474
0.00553798
-0.0164193
-0.0332422
-0.0459035
-0.0571825
-0.0680493
-0.0758553
-0.0753226
-0.0616229
-0.0348751
-0.00259334
0.0221182
0.0287883
0.0176522
0.000142292
-0.00939753
-0.00530314
-0.00584866
-0.0110286
-0.00245414
0.0144631
0.0259469
0.0212521
0.000155807
-0.0278744
-0.0512264
-0.0631954
-0.0632025
-0.0548806
-0.0429165
-0.0302985
-0.016732
-5.14744e-05
0.0210524
0.0442013
0.0651071
0.081871
0.0932294
0.0981496
0.0958198
0.088374
0.0812253
0.0765389
0.0724433
0.0685088
0.0673495
0.0697066
0.0730222
0.0741801
0.0742403
0.0744405
0.0721855
0.0660277
0.0580677
0.0489869
0.0375322
0.0243883
0.0110597
-0.00198727
-0.0150025
-0.0274404
-0.0384753
-0.0478209
-0.0558127
-0.062166
-0.0663445
-0.0682912
-0.0682925
-0.0663479
-0.0621712
-0.0558191
-0.047828
-0.0384824
-0.0274468
-0.0150078
-0.00199102
0.0110579
0.0243887
0.0375347
0.0489912
0.0580732
0.0660338
0.0721914
0.0744456
0.0742441
0.0741825
0.0730233
0.0697067
0.0673488
0.0685077
0.0724421
0.0765376
0.0812242
0.0883734
0.0958196
0.0981494
0.0932291
0.0818708
0.0651073
0.0442019
0.0210528
-5.14747e-05
-0.0167322
-0.0302986
-0.0429158
-0.054879
-0.0632006
-0.0631939
-0.051226
-0.0278748
0.000155533
0.0212526
0.0259479
0.0144637
-0.00245452
-0.0110295
-0.00584916
-0.00686081
-0.0142189
-0.00806884
0.00654552
0.0168318
0.0131058
-0.0046418
-0.0280331
-0.0473536
-0.0571311
-0.0566806
-0.04849
-0.0362496
-0.02278
-0.00824255
0.00880339
0.0296118
0.0524147
0.0740405
0.0932294
0.107915
0.115789
0.115627
0.109993
0.1046
0.101414
0.0981023
0.0947942
0.0944614
0.0971182
0.0999097
0.100002
0.0983072
0.0956898
0.0896396
0.0791751
0.0672294
0.0547378
0.0405765
0.0260266
0.0129356
0.00134883
-0.0091297
-0.0180058
-0.0248555
-0.0297643
-0.033357
-0.0358815
-0.0372218
-0.037596
-0.0375973
-0.0372254
-0.0358869
-0.0333637
-0.0297715
-0.0248625
-0.0180121
-0.00913504
0.00134485
0.0129332
0.0260259
0.0405775
0.0547405
0.0672334
0.07918
0.0896449
0.095695
0.0983119
0.100005
0.0999127
0.0971203
0.0944625
0.0947945
0.0981019
0.101414
0.104599
0.109992
0.115626
0.115788
0.107914
0.0932291
0.0740407
0.0524152
0.0296119
0.00880305
-0.00824302
-0.02278
-0.0362488
-0.0484884
-0.0566789
-0.0571301
-0.0473537
-0.0280338
-0.00464203
0.0131066
0.0168332
0.00654649
-0.00806909
-0.0142198
-0.00686134
-0.008524
-0.0194029
-0.0171153
-0.00620675
0.00178028
-0.00161371
-0.0160623
-0.0343039
-0.0487286
-0.0553725
-0.0538909
-0.0458725
-0.0338182
-0.0199981
-0.00468396
0.0128255
0.0333094
0.0554152
0.0771948
0.0981496
0.115789
0.126683
0.12907
0.125774
0.122392
0.120573
0.11778
0.114664
0.114285
0.116047
0.1171
0.115259
0.111487
0.10627
0.0972665
0.0839123
0.0696187
0.0553358
0.0400629
0.0254774
0.0135636
0.00399975
-0.00355897
-0.0086284
-0.0112323
-0.0117882
-0.0110391
-0.00972851
-0.00827838
-0.00718131
-0.00718223
-0.00828108
-0.00973274
-0.0110445
-0.0117941
-0.0112383
-0.00863412
-0.00356411
0.00399554
0.0135604
0.0254752
0.040062
0.0553362
0.0696204
0.0839153
0.0972707
0.106275
0.111492
0.115265
0.117105
0.116051
0.114287
0.114666
0.11778
0.120572
0.122391
0.125772
0.129069
0.126682
0.115788
0.0981494
0.0771951
0.0554156
0.0333094
0.0128249
-0.00468464
-0.0199982
-0.0338174
-0.0458711
-0.0538897
-0.0553722
-0.0487293
-0.0343049
-0.0160625
-0.00161257
0.00178205
-0.00620562
-0.0171156
-0.0194039
-0.00852457
-0.0105651
-0.0257018
-0.0279472
-0.0212586
-0.0158838
-0.0191069
-0.0302943
-0.0432855
-0.0525004
-0.0555295
-0.0527013
-0.0450263
-0.0338795
-0.0207181
-0.00549079
0.0119339
0.0316869
0.0526657
0.0739694
0.0958198
0.115627
0.12907
0.134001
0.133443
0.132436
0.132166
0.13007
0.127148
0.126306
0.126405
0.124794
0.12032
0.114231
0.106669
0.0956527
0.0810774
0.0663768
0.0521714
0.03754
0.0243945
0.0146519
0.0076438
0.00323985
0.00198498
0.00327064
0.00624669
0.0102784
0.0143952
0.0176913
0.0195954
0.0195951
0.0176904
0.0143934
0.0102757
0.00624316
0.00326636
0.00198017
0.003235
0.00763932
0.0146479
0.0243909
0.0375372
0.0521697
0.0663762
0.0810783
0.0956554
0.106673
0.114237
0.120325
0.124799
0.12641
0.12631
0.12715
0.13007
0.132166
0.132435
0.133442
0.134
0.129069
0.115626
0.0958196
0.0739695
0.0526657
0.0316864
0.0119329
-0.00549158
-0.020718
-0.0338785
-0.0450252
-0.0527006
-0.0555299
-0.0525015
-0.0432864
-0.0302942
-0.0191055
-0.0158818
-0.0212575
-0.0279475
-0.025703
-0.0105657
-0.0124453
-0.0315199
-0.0379805
-0.0352061
-0.0322507
-0.0353888
-0.0437778
-0.05224
-0.0569067
-0.0567565
-0.052915
-0.0461407
-0.0368821
-0.0255514
-0.0113427
0.00559539
0.0247107
0.0448725
0.0658324
0.088374
0.109993
0.125774
0.133443
0.136038
0.137612
0.138861
0.137435
0.134627
0.133059
0.13101
0.126082
0.118407
0.109644
0.0996568
0.0870934
0.0723968
0.058609
0.0457711
0.0330106
0.0223518
0.0154447
0.0112138
0.00979004
0.0118661
0.0161594
0.021259
0.026838
0.0320709
0.0357814
0.0375898
0.0375902
0.0357822
0.0320716
0.026838
0.0212581
0.0161571
0.0118626
0.00978583
0.0112093
0.0154399
0.022347
0.0330062
0.0457677
0.0586067
0.072396
0.0870945
0.0996599
0.109648
0.118413
0.126088
0.131016
0.133063
0.13463
0.137437
0.138862
0.137612
0.136037
0.133442
0.125772
0.109992
0.0883734
0.0658318
0.0448717
0.0247093
0.00559388
-0.0113437
-0.0255513
-0.0368811
-0.0461397
-0.0529147
-0.0567572
-0.0569078
-0.0522406
-0.0437771
-0.0353869
-0.0322485
-0.0352049
-0.0379809
-0.0315212
-0.012446
-0.0140533
-0.0365023
-0.0465824
-0.0471264
-0.0461764
-0.049284
-0.0555847
-0.0607497
-0.0621421
-0.0596972
-0.0551957
-0.0494172
-0.0422239
-0.0330082
-0.0200414
-0.00341786
0.0157436
0.036066
0.0575559
0.0812253
0.1046
0.122392
0.132436
0.137612
0.140856
0.142432
0.140458
0.136666
0.133457
0.128551
0.119785
0.10864
0.0970921
0.0847148
0.0708766
0.0566347
0.0444786
0.0338505
0.0238862
0.0165622
0.013075
0.0117873
0.0129398
0.0174213
0.0234506
0.029148
0.0346287
0.039493
0.0425454
0.0437035
0.0437041
0.042547
0.039495
0.0346307
0.0291493
0.0234507
0.0174198
0.0129368
0.0117831
0.0130698
0.0165566
0.0238808
0.0338458
0.0444749
0.0566324
0.0708763
0.0847163
0.0970952
0.108644
0.11979
0.128557
0.133462
0.136671
0.140461
0.142435
0.140857
0.137612
0.132435
0.122391
0.104599
0.0812242
0.0575545
0.0360643
0.0157416
-0.00341965
-0.0200423
-0.033008
-0.0422231
-0.0494168
-0.0551961
-0.0596984
-0.0621433
-0.0607499
-0.0555834
-0.0492816
-0.0461737
-0.0471249
-0.0465825
-0.0365033
-0.0140538
-0.0158724
-0.0420137
-0.0557522
-0.0592827
-0.0597703
-0.0623733
-0.0665175
-0.068758
-0.0673286
-0.0627172
-0.0571785
-0.0517698
-0.0462032
-0.0390626
-0.0276593
-0.011614
0.00772015
0.0287359
0.0514261
0.0765389
0.101414
0.120573
0.132166
0.138861
0.142432
0.142676
0.138332
0.131877
0.125705
0.117201
0.104491
0.0902591
0.0765068
0.0623491
0.0477591
0.0344037
0.0242958
0.0164331
0.0099467
0.00659475
0.00700406
0.00880017
0.0119921
0.0176163
0.0238884
0.028893
0.0332382
0.0370141
0.0391868
0.0397954
0.0397958
0.039188
0.0370162
0.0332409
0.0288956
0.0238903
0.017617
0.0119909
0.0087969
0.00699911
0.00658889
0.00994074
0.0164276
0.0242912
0.0344003
0.0477572
0.0623486
0.0765078
0.0902616
0.104495
0.117206
0.12571
0.131882
0.138337
0.14268
0.142435
0.138862
0.132166
0.120572
0.101414
0.0765376
0.0514243
0.0287336
0.00771787
-0.0116157
-0.0276599
-0.0390624
-0.0462028
-0.0517701
-0.0571799
-0.062719
-0.0673299
-0.0687579
-0.0665157
-0.0623704
-0.0597673
-0.0592809
-0.0557518
-0.0420143
-0.0158728
-0.018026
-0.0484228
-0.0660485
-0.0723103
-0.0735676
-0.0748521
-0.0762436
-0.0753214
-0.0709541
-0.063862
-0.0565691
-0.0506077
-0.0460118
-0.0409014
-0.0317155
-0.0172279
0.00144006
0.022659
0.0462958
0.0724433
0.0981023
0.11778
0.13007
0.137435
0.140458
0.138332
0.130508
0.120446
0.110735
0.0987268
0.0829184
0.066901
0.0524349
0.0380323
0.0240157
0.0124589
0.00495997
0.000300026
-0.00234412
-0.0015763
0.00267116
0.00732644
0.0118599
0.0173172
0.0224753
0.0259477
0.0287658
0.0313743
0.0330016
0.0335292
0.0335292
0.0330021
0.0313759
0.0287683
0.0259506
0.0224783
0.0173195
0.0118605
0.0073247
0.00266747
-0.00158126
-0.00234974
0.000294319
0.0049547
0.0124544
0.0240121
0.0380298
0.0524338
0.0669015
0.0829206
0.0987307
0.11074
0.120452
0.130514
0.138337
0.140461
0.137437
0.13007
0.11778
0.0981019
0.0724421
0.0462938
0.0226566
0.00143791
-0.0172293
-0.0317159
-0.0409013
-0.0460119
-0.0506089
-0.0565712
-0.0638641
-0.0709553
-0.0753209
-0.0762415
-0.074849
-0.0735646
-0.0723082
-0.0660478
-0.048423
-0.0180263
-0.0198948
-0.0539851
-0.0749221
-0.0832802
-0.0846479
-0.0841198
-0.0827088
-0.0791046
-0.0725996
-0.0637287
-0.0548703
-0.0480011
-0.0437808
-0.0403226
-0.0335587
-0.021315
-0.00407672
0.0168667
0.0413354
0.0685088
0.0947942
0.114664
0.127148
0.134627
0.136666
0.131877
0.120446
0.106722
0.093496
0.0783913
0.0603906
0.043689
0.029717
0.0164365
0.00428133
-0.00460409
-0.00912022
-0.0105495
-0.00968986
-0.00566345
0.00121594
0.0076459
0.0125937
0.0169631
0.0203238
0.0220753
0.0234423
0.024985
0.0262495
0.0269136
0.0269136
0.0262499
0.0249861
0.0234441
0.0220776
0.0203266
0.0169659
0.0125955
0.00764605
0.00121452
-0.00566635
-0.00969418
-0.0105548
-0.00912577
-0.00460943
0.00427642
0.0164324
0.0297143
0.0436878
0.0603912
0.0783938
0.0935
0.106727
0.120452
0.131882
0.136671
0.13463
0.12715
0.114666
0.0947945
0.0685077
0.0413333
0.0168643
-0.00407868
-0.0213161
-0.0335591
-0.0403229
-0.0437816
-0.048003
-0.0548728
-0.0637307
-0.0726003
-0.0791035
-0.0827062
-0.0841165
-0.0846448
-0.0832779
-0.074921
-0.0539848
-0.0198948