/*--------------------------------*- C++ -*----------------------------------*\
  =========                 |
  \\      /  F ield         | OpenFOAM: The Open Source CFD Toolbox
   \\    /   O peration     | Website:  https://openfoam.org
    \\  /    A nd           | Version:  10
     \\/     M anipulation  |
\*---------------------------------------------------------------------------*/
FoamFile
{
    format      ascii;
    class       volScalarField;
    location    "66";
    object      h_0;
}
// * * * * * * * * * * * * * * * * * * * * * * * * * * * * * * * * * * * * * //

dimensions      [0 1 0 0 0 0 0];

internalField   nonuniform List<scalar> 
10000
(
-8.77367e-05
-0.00027515
-0.000379893
-0.000260247
1.68355e-06
0.000238327
0.000439893
0.000579868
0.000463999
2.88334e-05
-0.000545518
-0.00117707
-0.00196777
-0.00283013
-0.00337413
-0.00332077
-0.00267522
-0.00148486
0.000283277
0.0024652
0.00458056
0.0062065
0.00725781
0.00779978
0.00777525
0.00710852
0.00590585
0.00445874
0.00299028
0.00149426
-0.000112229
-0.00172313
-0.00305961
-0.00386866
-0.00400536
-0.00354916
-0.00286902
-0.00238391
-0.00229533
-0.00247282
-0.00249446
-0.00204913
-0.00120191
-0.000244639
0.000496635
0.0008281
0.000765892
0.000415756
-3.55503e-05
-0.000337632
-0.000337615
-3.55029e-05
0.000415824
0.000765967
0.000828166
0.000496674
-0.00024464
-0.00120194
-0.00204916
-0.00249444
-0.00247274
-0.00229523
-0.00238389
-0.00286916
-0.0035495
-0.00400587
-0.00386924
-0.00306017
-0.00172356
-0.000112459
0.0014943
0.00299062
0.00445939
0.00590677
0.00710963
0.00777639
0.00780081
0.0072586
0.00620694
0.00458054
0.00246465
0.000282247
-0.00148619
-0.00267656
-0.00332185
-0.00337478
-0.00283032
-0.00196763
-0.00117679
-0.000545174
2.92581e-05
0.000464523
0.000580411
0.000440312
0.000238503
1.56439e-06
-0.000260605
-0.000380326
-0.000275474
-8.78505e-05
-0.00027515
-0.000853885
-0.00118886
-0.000893959
-0.000224994
0.000351176
0.000857927
0.00126544
0.00101076
-0.000144236
-0.00174466
-0.00357333
-0.00587924
-0.00833305
-0.00976348
-0.00938928
-0.00730003
-0.00369728
0.00149967
0.00784157
0.0139685
0.0186665
0.0216818
0.0231948
0.0230426
0.0210184
0.0174463
0.0131811
0.00886794
0.00448186
-0.000220501
-0.00493287
-0.00885361
-0.0112607
-0.0117472
-0.0105443
-0.00870127
-0.00740112
-0.00720012
-0.00770793
-0.00771715
-0.00635946
-0.00385487
-0.00106319
0.00108192
0.00204361
0.00188468
0.000910805
-0.000352359
-0.0011994
-0.00119935
-0.000352224
0.000910962
0.00188481
0.00204372
0.001082
-0.00106313
-0.00385483
-0.00635943
-0.00771706
-0.00770779
-0.00720002
-0.00740124
-0.0087018
-0.0105453
-0.0117486
-0.0112624
-0.00885524
-0.0049342
-0.000221247
0.00448192
0.00886894
0.0131831
0.0174491
0.0210217
0.023046
0.0231979
0.0216841
0.0186677
0.0139685
0.00784009
0.00149689
-0.00370087
-0.00730376
-0.00939246
-0.00976558
-0.0083339
-0.00587902
-0.00357248
-0.00174352
-0.000142908
0.00101221
0.00126679
0.000858892
0.000351554
-0.000225306
-0.000894868
-0.00118999
-0.000854768
-0.000275472
-0.000379893
-0.00118886
-0.00166007
-0.00126437
-0.000435139
0.00015715
0.000674059
0.00118187
0.000820593
-0.00087555
-0.00332004
-0.00619701
-0.00978224
-0.0134069
-0.0151855
-0.0139932
-0.0101591
-0.00415519
0.00410205
0.0139679
0.0234043
0.0305654
0.035071
0.0372123
0.0367624
0.0334347
0.0277701
0.0211117
0.0144362
0.00764823
0.000318209
-0.00710442
-0.0133765
-0.0173561
-0.0183897
-0.0168143
-0.0142249
-0.0124244
-0.012247
-0.0130576
-0.0129849
-0.0107145
-0.00663542
-0.00212877
0.00133532
0.00292461
0.00273536
0.00124393
-0.000723152
-0.00205157
-0.00205147
-0.000722915
0.00124414
0.00273546
0.00292463
0.00133538
-0.0021286
-0.00663517
-0.0107142
-0.0129847
-0.0130575
-0.0122471
-0.0124249
-0.0142259
-0.0168159
-0.0183918
-0.0173585
-0.013379
-0.00710654
0.000316938
0.00764825
0.0144378
0.0211149
0.0277747
0.03344
0.0367678
0.0372171
0.0350745
0.0305673
0.0234042
0.0139658
0.00409812
-0.00416028
-0.0101646
-0.0139983
-0.0151894
-0.0134089
-0.00978234
-0.0061957
-0.00331799
-0.000873255
0.000822755
0.00118357
0.000675111
0.000157544
-0.000435455
-0.00126539
-0.00166144
-0.00118999
-0.000380322
-0.000260247
-0.000893959
-0.00126437
-0.000803785
-6.55681e-05
0.000203414
0.000347736
0.000568061
-0.000170536
-0.00247764
-0.00564971
-0.00924621
-0.0134959
-0.0174574
-0.0187872
-0.016243
-0.0104847
-0.00229202
0.0083845
0.0207711
0.0323712
0.0409252
0.0460349
0.0481672
0.0471418
0.0426786
0.0355177
0.027353
0.0193178
0.0111059
0.00199421
-0.00754261
-0.0159011
-0.0214905
-0.0233335
-0.0217736
-0.0188167
-0.0167911
-0.016788
-0.0179577
-0.01786
-0.0147762
-0.00920216
-0.00297847
0.0018999
0.00425495
0.00412149
0.0021153
-0.000602148
-0.00245986
-0.00245967
-0.000601724
0.00211566
0.00412162
0.0042549
0.00189991
-0.00297825
-0.00920176
-0.0147758
-0.0178597
-0.0179576
-0.0167882
-0.0167919
-0.0188182
-0.0217758
-0.0233362
-0.0214935
-0.0159042
-0.00754527
0.00199259
0.0111059
0.0193198
0.0273571
0.0355236
0.0426856
0.0471489
0.0481734
0.0460394
0.0409275
0.0323711
0.0207686
0.00837992
-0.002298
-0.0104914
-0.0162495
-0.0187926
-0.0174608
-0.0134967
-0.00924483
-0.00564705
-0.00247461
-0.000167861
0.00056992
0.000348761
0.000203862
-6.56156e-05
-0.000804408
-0.00126539
-0.000894864
-0.000260603
1.68355e-06
-0.000224994
-0.000435139
-6.55681e-05
0.000347048
0.000100037
-0.00035962
-0.000784453
-0.00225284
-0.00529646
-0.00895863
-0.012596
-0.0164171
-0.0194879
-0.0194419
-0.0151499
-0.00754228
0.00241148
0.014732
0.0285344
0.0410252
0.0497208
0.054323
0.0555855
0.0535557
0.0480958
0.0401283
0.0315192
0.023327
0.0148493
0.00493289
-0.00605461
-0.0162225
-0.023473
-0.0264069
-0.0252776
-0.0223758
-0.0204676
-0.0208804
-0.0225687
-0.0226062
-0.018892
-0.0119422
-0.0039887
0.002443
0.00574909
0.00578263
0.00326416
-0.000262714
-0.0027087
-0.00270841
-0.000262063
0.00326474
0.00578285
0.00574902
0.00244295
-0.00398851
-0.0119418
-0.0188916
-0.0226059
-0.0225687
-0.0208808
-0.0204686
-0.0223776
-0.0252802
-0.0264101
-0.0234766
-0.016226
-0.00605745
0.00493128
0.0148495
0.0233293
0.0315237
0.0401348
0.0481037
0.0535638
0.0555926
0.0543283
0.0497237
0.0410255
0.0285319
0.0147271
0.00240507
-0.00754952
-0.0151572
-0.0194482
-0.0194922
-0.0164188
-0.0125953
-0.0089563
-0.00529345
-0.00224999
-0.000782369
-0.00035841
0.000100692
0.000347361
-6.56148e-05
-0.000435453
-0.000225304
1.56376e-06
0.000238327
0.000351176
0.00015715
0.000203414
0.000100037
-0.000733991
-0.0018853
-0.00317699
-0.00559158
-0.00934341
-0.0130865
-0.0159176
-0.0180859
-0.0189855
-0.0166803
-0.0103557
-0.00108917
0.0101274
0.0233089
0.0374749
0.0496797
0.0573673
0.0604084
0.0599328
0.0564146
0.0500269
0.0418671
0.0337849
0.0265359
0.0188723
0.0091287
-0.00254051
-0.0140645
-0.0228688
-0.0271292
-0.0269531
-0.0247435
-0.0235113
-0.0247051
-0.0270841
-0.0273776
-0.0232127
-0.0150916
-0.00555555
0.00240135
0.00674969
0.00709119
0.00420482
-8.436e-06
-0.00297575
-0.00297538
-7.61231e-06
0.00420553
0.00709143
0.00674955
0.00240124
-0.00555533
-0.0150912
-0.0232122
-0.0273774
-0.0270843
-0.0247057
-0.0235126
-0.0247457
-0.0269561
-0.0271328
-0.0228726
-0.0140681
-0.00254322
0.00912741
0.0188728
0.0265385
0.0337896
0.0418736
0.0500347
0.0564228
0.0599402
0.0604143
0.0573711
0.0496807
0.037473
0.0233043
0.0101211
-0.00109634
-0.0103629
-0.0166866
-0.0189902
-0.0180886
-0.0159184
-0.0130858
-0.00934146
-0.00558905
-0.00317465
-0.00188364
-0.000732949
0.000100694
0.000203864
0.000157545
0.000351554
0.000238501
0.000439893
0.000857927
0.000674059
0.000347736
-0.00035962
-0.0018853
-0.00389649
-0.00625841
-0.00967413
-0.0139169
-0.0172962
-0.0186896
-0.0183792
-0.0162185
-0.0109834
-0.00234308
0.0084902
0.0205219
0.0337212
0.0470852
0.0577665
0.0633531
0.063937
0.0610476
0.0557149
0.0485478
0.0407991
0.0341385
0.0288532
0.0230795
0.0146081
0.00326618
-0.00887316
-0.0188928
-0.0246106
-0.0259301
-0.0251345
-0.0252047
-0.0275491
-0.0307487
-0.0313732
-0.0269304
-0.0178928
-0.00700819
0.00235756
0.00778472
0.00858044
0.00553104
0.000836634
-0.00252581
-0.00252537
0.000837611
0.00553185
0.00858063
0.00778443
0.00235734
-0.00700795
-0.0178921
-0.0269298
-0.0313731
-0.0307492
-0.0275503
-0.0252065
-0.0251369
-0.0259332
-0.0246141
-0.0188965
-0.00887641
0.00326388
0.0146073
0.0230804
0.028856
0.034143
0.0408051
0.048555
0.0557226
0.061055
0.0639432
0.0633575
0.0577683
0.0470841
0.0337173
0.0205163
0.00848387
-0.0023493
-0.010989
-0.0162233
-0.018383
-0.0186924
-0.0172977
-0.0139167
-0.00967247
-0.00625603
-0.00389427
-0.00188363
-0.000358406
0.000348763
0.000675112
0.000858892
0.00044031
0.000579868
0.00126544
0.00118187
0.000568061
-0.000784453
-0.00317699
-0.00625841
-0.00972713
-0.0138128
-0.0179207
-0.0203195
-0.0198504
-0.0167437
-0.0111885
-0.00269286
0.00849724
0.0209134
0.0333723
0.0456495
0.0568408
0.0645804
0.0669395
0.0643197
0.0586068
0.0513835
0.0437071
0.0369307
0.0324407
0.0299974
0.0271303
0.0210667
0.011157
-0.000740595
-0.0115226
-0.0186997
-0.0218932
-0.0230542
-0.0249098
-0.028718
-0.0329189
-0.0340593
-0.0296005
-0.019918
-0.00786189
0.00287843
0.00946369
0.0108368
0.00775186
0.00268959
-0.00100034
-0.000999818
0.00269074
0.00775281
0.010837
0.00946325
0.00287804
-0.0078617
-0.0199173
-0.0295998
-0.0340592
-0.0329197
-0.0287195
-0.024912
-0.0230568
-0.0218963
-0.018703
-0.0115257
-0.000743194
0.0111553
0.0210664
0.0271314
0.0300001
0.0324448
0.036936
0.0437133
0.0513903
0.0586134
0.0643255
0.066944
0.0645828
0.0568406
0.045647
0.0333682
0.0209087
0.00849239
-0.00269778
-0.0111935
-0.0167487
-0.0198549
-0.0203231
-0.0179225
-0.0138125
-0.00972533
-0.00625602
-0.00317465
-0.000782367
0.00056992
0.00118357
0.00126679
0.000580411
0.000463999
0.00101076
0.000820593
-0.000170536
-0.00225284
-0.00559158
-0.00967413
-0.0138128
-0.0176639
-0.020493
-0.0209627
-0.0181489
-0.0121597
-0.00329436
0.00837074
0.0220658
0.0359829
0.0485231
0.0590642
0.0668768
0.0704303
0.0686191
0.0622566
0.0535183
0.0444549
0.036501
0.0310326
0.0291043
0.0299835
0.0306741
0.0278529
0.0202701
0.00938659
-0.00164859
-0.0100985
-0.0152752
-0.0186889
-0.0226829
-0.0282884
-0.0338115
-0.0358168
-0.0317099
-0.0216868
-0.0086272
0.00345657
0.0112541
0.0132957
0.010289
0.00498079
0.00104669
0.00104725
0.00498204
0.01029
0.013296
0.0112536
0.00345607
-0.00862713
-0.0216862
-0.0317094
-0.035817
-0.0338126
-0.0282903
-0.0226854
-0.0186916
-0.015278
-0.0101013
-0.00165098
0.00938483
0.0202691
0.027853
0.0306753
0.0299858
0.0291076
0.0310369
0.0365062
0.0444606
0.0535239
0.0622615
0.068623
0.0704328
0.0668778
0.0590638
0.0485215
0.0359805
0.0220625
0.00836644
-0.00329957
-0.0121654
-0.0181545
-0.0209675
-0.0204964
-0.0176654
-0.0138125
-0.00967247
-0.00558905
-0.00224999
-0.000167864
0.000822753
0.00101221
0.000464524
2.88334e-05
-0.000144236
-0.00087555
-0.00247764
-0.00529646
-0.00934341
-0.0139169
-0.0179207
-0.020493
-0.0209682
-0.0186848
-0.0131398
-0.0043287
0.00744506
0.0217026
0.037345
0.0523506
0.0646551
0.0730799
0.0770101
0.0758549
0.0694771
0.059157
0.0473481
0.0365397
0.0284916
0.0245116
0.0252606
0.0295596
0.0340236
0.0348883
0.0302968
0.0211974
0.0106003
0.00132087
-0.00572956
-0.0115864
-0.0180775
-0.0258747
-0.0331033
-0.0363569
-0.0329954
-0.0230106
-0.00926765
0.00393187
0.0128355
0.0155966
0.0128772
0.00760715
0.00363402
0.00363456
0.00760836
0.0128782
0.0155968
0.012835
0.00393134
-0.00926767
-0.0230101
-0.0329951
-0.0363574
-0.0331048
-0.025877
-0.0180801
-0.0115889
-0.00573195
0.00131879
0.0105987
0.0211965
0.0302966
0.0348889
0.0340248
0.0295614
0.0252631
0.0245148
0.0284955
0.036544
0.0473522
0.0591606
0.0694802
0.0758577
0.0770125
0.0730819
0.0646563
0.0523506
0.0373433
0.021699
0.00743987
-0.00433462
-0.0131458
-0.0186902
-0.0209728
-0.0204964
-0.0179225
-0.0139167
-0.00934146
-0.00529345
-0.00247461
-0.000873255
-0.000142908
2.92588e-05
-0.000545518
-0.00174466
-0.00332004
-0.00564971
-0.00895863
-0.0130865
-0.0172962
-0.0203195
-0.0209627
-0.0186848
-0.013441
-0.00511785
0.00632241
0.0204533
0.0364099
0.0529895
0.068276
0.0799382
0.0862171
0.086449
0.0807982
0.0699781
0.0557112
0.0408018
0.0282781
0.0202598
0.0179086
0.0213853
0.0290672
0.0373278
0.0421415
0.041131
0.0346602
0.0253691
0.0159047
0.00726783
-0.00108327
-0.0103174
-0.0205968
-0.0298212
-0.0346314
-0.0323715
-0.0228343
-0.0088325
0.00511059
0.0148867
0.0183617
0.0161653
0.0112897
0.00754109
0.00754157
0.0112908
0.0161662
0.0183618
0.0148862
0.00511
-0.00883261
-0.0228341
-0.0323714
-0.0346323
-0.0298232
-0.0205994
-0.01032
-0.00108546
0.00726613
0.0159035
0.0253684
0.03466
0.0411314
0.0421424
0.0373291
0.0290689
0.0213872
0.0179108
0.0202622
0.0282805
0.0408042
0.0557135
0.0699806
0.0808012
0.0864527
0.0862211
0.0799416
0.068278
0.0529892
0.0364072
0.0204488
0.00631698
-0.00512354
-0.0134467
-0.0186902
-0.0209675
-0.0203231
-0.0172977
-0.0130858
-0.0089563
-0.00564705
-0.00331799
-0.00174352
-0.000545175
-0.00117707
-0.00357333
-0.00619701
-0.00924621
-0.012596
-0.0159176
-0.0186896
-0.0198504
-0.0181489
-0.0131398
-0.00511785
0.00583541
0.0196996
0.0356854
0.0524342
0.0687905
0.0832851
0.0936565
0.0977116
0.0946278
0.0850338
0.0702133
0.0522027
0.0342048
0.0199071
0.0118758
0.0111114
0.0172125
0.0281235
0.0400986
0.0489994
0.052009
0.0488618
0.0416437
0.0326518
0.0228874
0.0122861
0.000380544
-0.0124367
-0.0238412
-0.0305026
-0.0297095
-0.0210252
-0.00717912
0.00712386
0.0174901
0.0215954
0.0200728
0.0158765
0.0125749
0.0125753
0.0158775
0.0200736
0.0215955
0.0174895
0.00712317
-0.00717943
-0.0210252
-0.0297097
-0.0305037
-0.0238432
-0.0124393
0.000378113
0.0122844
0.0228865
0.0326515
0.0416438
0.0488622
0.0520098
0.0490005
0.0401
0.028125
0.0172139
0.0111125
0.0118765
0.0199077
0.0342053
0.0522037
0.0702153
0.0850372
0.0946325
0.0977168
0.0936612
0.0832883
0.0687916
0.0524331
0.0356825
0.0196953
0.00583029
-0.00512353
-0.0131458
-0.0181545
-0.0198549
-0.0186924
-0.0159184
-0.0125953
-0.00924483
-0.0061957
-0.00357248
-0.00117679
-0.00196777
-0.00587924
-0.00978224
-0.0134959
-0.0164171
-0.0180859
-0.0183792
-0.0167437
-0.0121597
-0.0043287
0.00632241
0.0196996
0.0356987
0.0530435
0.0698296
0.0850044
0.097718
0.106053
0.107639
0.101562
0.0887223
0.070672
0.0495175
0.0287395
0.0126617
0.00435444
0.00474717
0.0129652
0.0266182
0.0419472
0.054774
0.0618851
0.0623873
0.0577382
0.0498066
0.0395267
0.0272042
0.0129686
-0.00228936
-0.0160268
-0.0248612
-0.0259273
-0.0185252
-0.00530288
0.0088816
0.0194449
0.0240126
0.0232813
0.0200576
0.0174424
0.0174426
0.0200583
0.0232818
0.0240125
0.0194443
0.00888087
-0.00530341
-0.0185256
-0.0259279
-0.0248625
-0.0160289
-0.00229178
0.0129665
0.0272031
0.0395264
0.0498071
0.057739
0.0623882
0.0618862
0.0547751
0.0419484
0.0266193
0.0129659
0.00474724
0.00435385
0.0126607
0.0287388
0.0495177
0.0706737
0.0887257
0.101567
0.107645
0.106058
0.0977219
0.0850069
0.0698306
0.0530427
0.0356961
0.0196953
0.00631698
-0.00433462
-0.0121654
-0.0167487
-0.018383
-0.0180886
-0.0164188
-0.0134967
-0.00978235
-0.00587902
-0.00196764
-0.00283013
-0.00833305
-0.0134069
-0.0174574
-0.0194879
-0.0189855
-0.0162185
-0.0111885
-0.00329436
0.00744506
0.0204533
0.0356854
0.0530435
0.0709262
0.087045
0.100452
0.110836
0.116683
0.115686
0.107022
0.0918138
0.0716412
0.0483898
0.0255533
0.00790697
-0.000985375
-0.000114128
0.00938442
0.0249683
0.0429875
0.0592868
0.0703133
0.0745897
0.0729112
0.0666408
0.0565399
0.0431224
0.0269706
0.00942031
-0.0067421
-0.0179928
-0.0212541
-0.0155913
-0.00360129
0.00977815
0.019964
0.024747
0.0249589
0.0230938
0.0214768
0.0214769
0.023094
0.024959
0.0247468
0.0199635
0.00977748
-0.00360199
-0.015592
-0.0212551
-0.0179944
-0.00674416
0.00941823
0.0269692
0.0431219
0.0565404
0.0666419
0.0729125
0.0745911
0.0703146
0.059288
0.0429884
0.0249688
0.00938432
-0.000114969
-0.000986909
0.00790515
0.0255519
0.0483896
0.0716425
0.0918168
0.107027
0.115691
0.116688
0.110841
0.100456
0.0870479
0.0709277
0.0530427
0.0356825
0.0204488
0.00743987
-0.00329957
-0.0111935
-0.0162233
-0.0189902
-0.0194922
-0.0174608
-0.0134089
-0.0083339
-0.00283033
-0.00337413
-0.00976348
-0.0151855
-0.0187872
-0.0194419
-0.0166803
-0.0109834
-0.00269286
0.00837074
0.0217026
0.0364099
0.0524342
0.0698296
0.087045
0.101754
0.113116
0.121112
0.124495
0.121131
0.110436
0.0937297
0.0724792
0.0481676
0.0240818
0.00522692
-0.00442179
-0.00367183
0.00627263
0.0229025
0.0428256
0.0620294
0.0767321
0.0849218
0.0866614
0.0826826
0.073452
0.0595574
0.0419339
0.0223394
0.00383146
-0.00987883
-0.0155087
-0.0119694
-0.00184503
0.00995726
0.0190938
0.0237627
0.0250025
0.0248269
0.0244864
0.0244863
0.0248266
0.0250023
0.0237624
0.0190934
0.00995663
-0.00184584
-0.0119705
-0.0155101
-0.00988053
0.00382957
0.0223378
0.0419331
0.0595576
0.0734532
0.0826843
0.0866631
0.0849233
0.0767334
0.0620305
0.0428262
0.0229025
0.00627192
-0.00367329
-0.00442383
0.00522478
0.0240802
0.0481671
0.07248
0.0937318
0.110439
0.121135
0.1245
0.121117
0.113121
0.101758
0.0870479
0.0698306
0.0524331
0.0364072
0.021699
0.00836644
-0.00269778
-0.010989
-0.0166866
-0.0194482
-0.0187926
-0.0151894
-0.00976559
-0.00337478
-0.00332077
-0.00938928
-0.0139932
-0.016243
-0.0151499
-0.0103557
-0.00234308
0.00849724
0.0220658
0.037345
0.0529895
0.0687905
0.0850044
0.100452
0.113116
0.122302
0.128066
0.129261
0.123917
0.111679
0.0939928
0.0721785
0.0473432
0.0225126
0.00274201
-0.00772579
-0.00751726
0.00219681
0.019068
0.040101
0.0615698
0.0795935
0.0916793
0.0971132
0.0959201
0.0882028
0.0745147
0.0560187
0.0348214
0.0142494
-0.00176433
-0.00974612
-0.0085437
-0.000783514
0.00874571
0.0161571
0.0202847
0.0224599
0.0241079
0.0251933
0.025193
0.0241072
0.0224591
0.0202841
0.0161567
0.00874512
-0.000784429
-0.00854495
-0.0097476
-0.00176591
0.0142479
0.0348204
0.0560185
0.0745156
0.0882045
0.0959222
0.0971151
0.0916808
0.0795945
0.0615704
0.0401013
0.0190677
0.00219578
-0.00751897
-0.00772799
0.00273979
0.022511
0.0473425
0.0721787
0.0939939
0.111681
0.12392
0.129265
0.128071
0.122307
0.113121
0.100456
0.0850069
0.0687916
0.0529892
0.0373433
0.0220625
0.00849239
-0.00234931
-0.0103629
-0.0151572
-0.0162495
-0.0139983
-0.00939246
-0.00332185
-0.00267522
-0.00730003
-0.0101591
-0.0104847
-0.00754228
-0.00108917
0.0084902
0.0209134
0.0359829
0.0523506
0.068276
0.0832851
0.097718
0.110836
0.121112
0.128066
0.131775
0.131125
0.124249
0.110884
0.0924799
0.0702545
0.0451004
0.0198201
-0.00063981
-0.011947
-0.0126012
-0.00368915
0.0126756
0.0339758
0.0568737
0.0775127
0.0930263
0.102002
0.103806
0.0981522
0.0854111
0.0667648
0.0445351
0.0223057
0.00427623
-0.00591237
-0.00715949
-0.00220757
0.0043564
0.00932683
0.0124107
0.0153234
0.0188171
0.0214051
0.0214046
0.0188158
0.0153221
0.0124099
0.00932638
0.00435589
-0.00220855
-0.00716096
-0.00591401
0.0042748
0.0223047
0.0445348
0.0667654
0.0854125
0.0981543
0.103808
0.102004
0.0930275
0.0775134
0.0568739
0.0339756
0.0126749
-0.00369031
-0.0126029
-0.0119491
-0.000641911
0.0198184
0.0450994
0.0702542
0.0924802
0.110885
0.124251
0.131128
0.131779
0.128071
0.121117
0.110841
0.0977219
0.0832883
0.068278
0.0523506
0.0359805
0.0209087
0.00848387
-0.00109634
-0.00754953
-0.0104914
-0.0101646
-0.00730376
-0.00267656
-0.00148486
-0.00369728
-0.00415519
-0.00229202
0.00241148
0.0101274
0.0205219
0.0333723
0.0485231
0.0646551
0.0799382
0.0936565
0.106053
0.116683
0.124495
0.129261
0.131125
0.129038
0.121178
0.107214
0.0884663
0.0661023
0.0409464
0.015592
-0.00528282
-0.0174093
-0.0191838
-0.011545
0.00367565
0.0244533
0.0478796
0.0702321
0.0884301
0.100537
0.105371
0.102237
0.0911502
0.0730945
0.0504781
0.0271281
0.00751464
-0.0046436
-0.00844767
-0.00680091
-0.00394697
-0.00214606
-0.000586676
0.00288316
0.00823959
0.0123953
0.0123946
0.0082379
0.00288142
-0.000587728
-0.00214647
-0.00394737
-0.0068019
-0.0084493
-0.00464539
0.00751332
0.0271276
0.0504787
0.0730959
0.0911521
0.102239
0.105373
0.100538
0.0884308
0.0702323
0.0478794
0.0244528
0.00367477
-0.0115462
-0.0191854
-0.0174111
-0.00528457
0.0155905
0.0409453
0.0661017
0.0884659
0.107214
0.121179
0.12904
0.131128
0.129265
0.1245
0.116688
0.106058
0.0936612
0.0799416
0.0646563
0.0485215
0.0333682
0.0205163
0.010121
0.00240506
-0.002298
-0.00416028
-0.00370087
-0.00148618
0.000283277
0.00149967
0.00410205
0.0083845
0.014732
0.0233089
0.0337212
0.0456495
0.0590642
0.0730799
0.0862171
0.0977116
0.107639
0.115686
0.121131
0.123917
0.124249
0.121178
0.112922
0.0989654
0.0803934
0.0583371
0.0336345
0.00865628
-0.0123148
-0.0251789
-0.0282214
-0.0221578
-0.00849725
0.0112192
0.0345298
0.05793
0.0782465
0.0931534
0.101014
0.100724
0.0918525
0.0750745
0.052804
0.0290603
0.00849678
-0.00525693
-0.0116549
-0.0137451
-0.0152394
-0.0172062
-0.0175657
-0.0137317
-0.0065875
-0.000882365
-0.000883191
-0.00658948
-0.0137337
-0.0175669
-0.0172066
-0.0152398
-0.013746
-0.0116566
-0.00525867
0.00849574
0.0290604
0.0528052
0.0750765
0.0918548
0.100726
0.101016
0.0931543
0.0782467
0.0579298
0.0345293
0.0112184
-0.0084983
-0.0221591
-0.0282228
-0.0251803
-0.0123161
0.0086552
0.0336336
0.0583362
0.0803925
0.0989649
0.112922
0.121179
0.124251
0.12392
0.121135
0.115691
0.107645
0.0977168
0.0862211
0.0730819
0.0590638
0.045647
0.0337173
0.0233043
0.0147271
0.00837992
0.00409812
0.00149689
0.000282255
0.0024652
0.00784157
0.0139679
0.0207711
0.0285344
0.0374749
0.0470852
0.0568408
0.0668768
0.0770101
0.086449
0.0946278
0.101562
0.107022
0.110436
0.111679
0.110884
0.107214
0.0989654
0.0854013
0.0673043
0.0457811
0.0217666
-0.00256681
-0.0234041
-0.0369011
-0.0412515
-0.036907
-0.0250236
-0.00665551
0.0162065
0.0403237
0.0624665
0.0799675
0.0907963
0.0934853
0.087179
0.0722397
0.0510635
0.0277987
0.00714164
-0.00757853
-0.0163336
-0.0223003
-0.0285042
-0.0346481
-0.0372908
-0.0334231
-0.0247856
-0.0177112
-0.0177121
-0.0247878
-0.0334253
-0.0372923
-0.0346486
-0.0285045
-0.0223012
-0.0163351
-0.00757996
0.00714106
0.0277994
0.0510653
0.0722419
0.0871812
0.0934871
0.0907973
0.0799678
0.0624663
0.0403232
0.0162058
-0.00665647
-0.0250247
-0.0369082
-0.0412527
-0.0369022
-0.0234049
-0.00256756
0.0217658
0.04578
0.0673031
0.0854003
0.0989649
0.107214
0.110885
0.111681
0.110439
0.107027
0.101567
0.0946325
0.0864527
0.0770125
0.0668778
0.0568406
0.0470841
0.037473
0.0285319
0.0207686
0.0139658
0.0078401
0.00246466
0.00458056
0.0139685
0.0234043
0.0323712
0.0410252
0.0496797
0.0577665
0.0645804
0.0704303
0.0758549
0.0807982
0.0850338
0.0887223
0.0918138
0.0937297
0.0939928
0.0924799
0.0884663
0.0803934
0.0673043
0.0496592
0.0285976
0.00527077
-0.01829
-0.038781
-0.0527086
-0.0582477
-0.0556141
-0.0456165
-0.0288138
-0.00667946
0.0178686
0.0415632
0.0614197
0.075057
0.0806835
0.0770575
0.0642928
0.0448188
0.0229007
0.0031427
-0.0116702
-0.0222367
-0.0318986
-0.0429048
-0.0534919
-0.0588144
-0.0554311
-0.0458406
-0.037748
-0.037749
-0.045843
-0.0554337
-0.0588162
-0.0534926
-0.0429051
-0.0318992
-0.0222378
-0.0116711
0.00314264
0.0229018
0.0448209
0.064295
0.0770594
0.0806847
0.0750574
0.0614195
0.0415626
0.0178678
-0.0066805
-0.0288149
-0.0456178
-0.0556153
-0.0582486
-0.0527092
-0.0387815
-0.0182906
0.00526994
0.0285964
0.0496579
0.0673031
0.0803925
0.0884659
0.0924802
0.0939939
0.0937318
0.0918167
0.0887257
0.0850372
0.0808012
0.0758576
0.0704328
0.0645828
0.0577683
0.0496807
0.0410255
0.0323711
0.0234042
0.0139685
0.00458055
0.0062065
0.0186665
0.0305654
0.0409252
0.0497208
0.0573673
0.0633531
0.0669395
0.0686191
0.0694771
0.0699781
0.0702133
0.070672
0.0716412
0.0724792
0.0721785
0.0702545
0.0661023
0.0583371
0.0457811
0.0285976
0.0080374
-0.0144472
-0.0369429
-0.0566862
-0.0706034
-0.0769446
-0.0757867
-0.0676614
-0.0526482
-0.0316353
-0.00709989
0.0177525
0.0396854
0.0559749
0.0644622
0.0635112
0.0530747
0.0357355
0.0159134
-0.00200572
-0.0160241
-0.0277616
-0.0407567
-0.0564295
-0.0715367
-0.0798782
-0.0775932
-0.0677666
-0.059144
-0.0591449
-0.0677691
-0.0775959
-0.0798801
-0.0715375
-0.0564297
-0.040757
-0.0277622
-0.0160245
-0.00200535
0.0159148
0.0357377
0.0530768
0.0635126
0.0644628
0.0559747
0.0396847
0.0177515
-0.0071011
-0.0316366
-0.0526495
-0.0676626
-0.0757875
-0.076945
-0.0706036
-0.0566864
-0.0369432
-0.014448
0.00803637
0.0285964
0.04578
0.0583362
0.0661017
0.0702542
0.0721787
0.07248
0.0716425
0.0706737
0.0702153
0.0699806
0.0694802
0.068623
0.066944
0.0633575
0.0573711
0.0497237
0.0409275
0.0305673
0.0186678
0.00620695
0.00725781
0.0216818
0.035071
0.0460349
0.054323
0.0604084
0.063937
0.0643197
0.0622566
0.059157
0.0557112
0.0522027
0.0495175
0.0483898
0.0481676
0.0473432
0.0451004
0.0409464
0.0336345
0.0217666
0.00527077
-0.0144472
-0.0356506
-0.0565791
-0.0750055
-0.0882822
-0.0948137
-0.0946691
-0.0882238
-0.0751326
-0.0556338
-0.03159
-0.00596662
0.0178483
0.0367584
0.048136
0.0499158
0.0419767
0.0271596
0.0100454
-0.00532662
-0.0179097
-0.0303074
-0.0461982
-0.0661401
-0.0855181
-0.096973
-0.0963076
-0.0869889
-0.0783779
-0.0783788
-0.086991
-0.0963101
-0.0969748
-0.085519
-0.0661403
-0.0461983
-0.0303075
-0.0179096
-0.00532591
0.0100469
0.0271617
0.0419786
0.0499169
0.0481361
0.0367577
0.0178472
-0.005968
-0.0315915
-0.0556353
-0.0751339
-0.0882247
-0.0946696
-0.0948137
-0.088282
-0.0750053
-0.0565792
-0.0356511
-0.0144479
0.00526994
0.0217658
0.0336336
0.0409453
0.0450994
0.0473425
0.0481671
0.0483896
0.0495177
0.0522037
0.0557135
0.0591606
0.0622615
0.0643255
0.0639432
0.0604143
0.0543283
0.0460394
0.0350745
0.0216841
0.00725861
0.00779978
0.0231948
0.0372123
0.0481672
0.0555855
0.0599328
0.0610476
0.0586068
0.0535183
0.0473481
0.0408018
0.0342048
0.0287395
0.0255533
0.0240818
0.0225126
0.0198201
0.015592
0.00865628
-0.00256681
-0.01829
-0.0369429
-0.0565791
-0.0756306
-0.0923579
-0.104499
-0.110664
-0.111035
-0.105972
-0.0948135
-0.0771286
-0.0540016
-0.0279601
-0.00242953
0.0190998
0.03345
0.0381071
0.0329264
0.0210323
0.00710719
-0.00527259
-0.0160634
-0.0287651
-0.0470515
-0.0706021
-0.0936417
-0.107969
-0.109204
-0.100999
-0.0928844
-0.0928851
-0.101
-0.109206
-0.107971
-0.0936425
-0.0706023
-0.0470513
-0.0287648
-0.0160629
-0.00527165
0.0071087
0.0210341
0.0329279
0.0381079
0.0334498
0.0190988
-0.00243099
-0.0279618
-0.0540034
-0.0771302
-0.0948147
-0.105973
-0.111035
-0.110664
-0.104499
-0.0923573
-0.0756304
-0.0565792
-0.0369432
-0.0182906
-0.00256756
0.0086552
0.0155905
0.0198184
0.022511
0.0240802
0.0255519
0.0287388
0.0342053
0.0408042
0.0473522
0.0535239
0.0586134
0.061055
0.0599403
0.0555926
0.0481734
0.0372171
0.0231979
0.00780081
0.00777525
0.0230426
0.0367624
0.0471418
0.0535557
0.0564146
0.0557149
0.0513835
0.0444549
0.0365397
0.0282781
0.0199071
0.0126617
0.00790697
0.00522692
0.00274201
-0.00063981
-0.00528282
-0.0123148
-0.0234041
-0.038781
-0.0566862
-0.0750055
-0.0923579
-0.107422
-0.118273
-0.123744
-0.124223
-0.120213
-0.110906
-0.0952652
-0.0734996
-0.047529
-0.0206811
0.00320678
0.0204034
0.0279622
0.0257308
0.0170766
0.00667621
-0.00246103
-0.0112758
-0.0239947
-0.0441098
-0.0704356
-0.0963078
-0.113055
-0.116292
-0.109676
-0.102475
-0.102475
-0.109677
-0.116293
-0.113056
-0.0963085
-0.0704357
-0.0441095
-0.023994
-0.0112749
-0.00245988
0.00667766
0.0170781
0.0257319
0.0279626
0.0204029
0.00320547
-0.0206829
-0.0475309
-0.0735014
-0.0952667
-0.110907
-0.120213
-0.124222
-0.123743
-0.118272
-0.107422
-0.0923573
-0.0750053
-0.0566863
-0.0387815
-0.0234049
-0.0123161
-0.00528457
-0.000641912
0.00273979
0.00522478
0.00790515
0.0126607
0.0199077
0.0282805
0.036544
0.0444606
0.0513903
0.0557226
0.0564228
0.0535638
0.047149
0.0367679
0.023046
0.00777639
0.00710852
0.0210184
0.0334347
0.0426786
0.0480958
0.0500269
0.0485478
0.0437071
0.036501
0.0284916
0.0202598
0.0118758
0.00435444
-0.000985375
-0.00442179
-0.00772579
-0.011947
-0.0174093
-0.0251789
-0.0369011
-0.0527086
-0.0706034
-0.0882822
-0.104499
-0.118273
-0.127953
-0.13259
-0.132854
-0.129562
-0.121974
-0.10858
-0.0887067
-0.0635519
-0.0361932
-0.010694
0.00874772
0.018838
0.0194607
0.0141688
0.00748696
0.00173004
-0.00499381
-0.0174408
-0.0387497
-0.0669296
-0.0947531
-0.113472
-0.118864
-0.11437
-0.108533
-0.108534
-0.114371
-0.118865
-0.113473
-0.0947538
-0.0669298
-0.0387492
-0.0174398
-0.00499249
0.00173149
0.00748839
0.01417
0.0194613
0.0188378
0.00874669
-0.0106957
-0.0361953
-0.063554
-0.0887085
-0.108581
-0.121974
-0.129561
-0.132853
-0.132589
-0.127951
-0.118272
-0.104499
-0.088282
-0.0706036
-0.0527092
-0.0369022
-0.0251803
-0.0174111
-0.0119491
-0.00772799
-0.00442383
-0.000986906
0.00435385
0.0118765
0.0202622
0.0284955
0.0365062
0.0437134
0.0485551
0.0500347
0.0481037
0.0426856
0.03344
0.0210217
0.00710962
0.00590585
0.0174463
0.0277701
0.0355177
0.0401283
0.0418671
0.0407991
0.0369307
0.0310326
0.0245116
0.0179086
0.0111114
0.00474717
-0.000114128
-0.00367183
-0.00751726
-0.0126012
-0.0191838
-0.0282214
-0.0412515
-0.0582477
-0.0769446
-0.0948137
-0.110664
-0.123744
-0.13259
-0.136444
-0.136298
-0.133417
-0.127332
-0.116251
-0.0987261
-0.0752011
-0.0483798
-0.022391
-0.00172052
0.0101791
0.0133254
0.011377
0.00850969
0.00620755
0.00169233
-0.0101063
-0.0318421
-0.0608615
-0.0897619
-0.110112
-0.11796
-0.116246
-0.112291
-0.112291
-0.116246
-0.11796
-0.110113
-0.0897626
-0.0608617
-0.0318415
-0.0101049
0.00169418
0.00620939
0.00851116
0.0113779
0.0133256
0.0101784
-0.00172204
-0.0223931
-0.0483821
-0.0752031
-0.0987274
-0.116251
-0.127331
-0.133415
-0.136296
-0.136441
-0.132589
-0.123743
-0.110664
-0.0948137
-0.076945
-0.0582486
-0.0412527
-0.0282228
-0.0191854
-0.0126029
-0.00751897
-0.00367329
-0.000114964
0.00474725
0.0111125
0.0179108
0.0245148
0.0310369
0.036936
0.0408051
0.0418736
0.0401348
0.0355236
0.0277747
0.0174491
0.00590676
0.00445874
0.0131811
0.0211117
0.027353
0.0315192
0.0337849
0.0341385
0.0324407
0.0291043
0.0252606
0.0213853
0.0172125
0.0129652
0.00938442
0.00627263
0.00219681
-0.00368915
-0.011545
-0.0221578
-0.036907
-0.0556141
-0.0757867
-0.0946691
-0.111035
-0.124223
-0.132854
-0.136298
-0.135844
-0.133233
-0.128407
-0.119512
-0.10452
-0.0832013
-0.0578467
-0.0325008
-0.0116948
0.00121796
0.00649256
0.00777032
0.00866997
0.00976396
0.00752681
-0.0031903
-0.0244769
-0.0532333
-0.0822934
-0.103901
-0.114432
-0.116054
-0.11442
-0.11442
-0.116053
-0.114432
-0.103901
-0.0822939
-0.0532335
-0.0244761
-0.00318854
0.00752907