/*--------------------------------*- C++ -*----------------------------------*\
  =========                 |
  \\      /  F ield         | OpenFOAM: The Open Source CFD Toolbox
   \\    /   O peration     | Website:  https://openfoam.org
    \\  /    A nd           | Version:  10
     \\/     M anipulation  |
\*---------------------------------------------------------------------------*/
FoamFile
{
    format      ascii;
    class       volScalarField;
    location    "88";
    object      h;
}
// * * * * * * * * * * * * * * * * * * * * * * * * * * * * * * * * * * * * * //

dimensions      [0 1 0 0 0 0 0];

internalField   nonuniform List<scalar> 
10000
(
-0.000919467
-0.00246899
-0.00327344
-0.00317715
-0.00232998
-0.00103581
0.00040906
0.00180597
0.00305843
0.00410477
0.0048638
0.00523124
0.00509847
0.00436965
0.00301537
0.00117121
-0.000800336
-0.00242321
-0.00338213
-0.00372639
-0.00379577
-0.0039279
-0.00424514
-0.00468017
-0.0051204
-0.00552213
-0.00594433
-0.0064953
-0.0072143
-0.00795495
-0.00840132
-0.00825684
-0.00743494
-0.00607035
-0.00440228
-0.00267024
-0.00106189
0.00033312
0.00153732
0.00260535
0.00353241
0.00426983
0.00479858
0.00514264
0.00533508
0.00542456
0.00548574
0.00556661
0.00565114
0.00570152
0.00570151
0.00565111
0.00556657
0.00548565
0.00542438
0.00533478
0.00514223
0.00479805
0.00426918
0.00353167
0.00260457
0.00153658
0.000332478
-0.00106238
-0.00267052
-0.0044023
-0.00607008
-0.00743437
-0.00825603
-0.00840032
-0.00795386
-0.00721324
-0.00649436
-0.00594357
-0.0055216
-0.00512012
-0.00468013
-0.00424532
-0.00392827
-0.00379629
-0.00372698
-0.00338274
-0.00242376
-0.000800784
0.00117088
0.00301513
0.00436948
0.00509835
0.00523117
0.00486377
0.00410477
0.00305847
0.00180605
0.000409172
-0.00103567
-0.00232982
-0.00317699
-0.0032733
-0.00246889
-0.000919429
-0.00246899
-0.00660318
-0.00867185
-0.00825524
-0.00578727
-0.00212387
0.00190901
0.00576052
0.00916334
0.0119487
0.0139032
0.0147604
0.0142401
0.0120785
0.00817497
0.00288699
-0.00276916
-0.00742955
-0.0101802
-0.0111633
-0.0113669
-0.0117668
-0.0127021
-0.013957
-0.015189
-0.0162635
-0.0173571
-0.0188078
-0.0207621
-0.0228146
-0.0240496
-0.0236022
-0.0212235
-0.0173116
-0.0125669
-0.00768651
-0.00320305
0.000654286
0.00399041
0.00699407
0.00966772
0.0118788
0.0135721
0.0148027
0.0156424
0.0162091
0.0166948
0.0172035
0.0176497
0.0178997
0.0178997
0.0176496
0.0172033
0.0166944
0.0162085
0.0156414
0.0148014
0.0135705
0.0118769
0.00966562
0.00699194
0.00398843
0.000652616
-0.00320427
-0.00768714
-0.0125668
-0.0173107
-0.0212219
-0.0235999
-0.0240468
-0.0228117
-0.0207592
-0.0188053
-0.017355
-0.0162621
-0.0151882
-0.0139568
-0.0127025
-0.0117678
-0.0113683
-0.0111648
-0.0101818
-0.00743104
-0.00277039
0.00288605
0.00817428
0.012078
0.0142398
0.0147602
0.0139031
0.0119487
0.00916347
0.00576074
0.00190933
-0.00212348
-0.00578683
-0.00825479
-0.00867145
-0.0066029
-0.00246889
-0.00327344
-0.00867185
-0.0111303
-0.0100845
-0.00620071
-0.000731022
0.00513485
0.0106019
0.0152745
0.018904
0.021213
0.0218923
0.0206161
0.0170252
0.0109256
0.00277671
-0.0059296
-0.0131042
-0.0173146
-0.0187771
-0.0190449
-0.0196392
-0.0210551
-0.0229076
-0.0246259
-0.0259885
-0.0272983
-0.0291588
-0.0318888
-0.0349022
-0.0367545
-0.0360623
-0.0324245
-0.0264732
-0.0193205
-0.0120634
-0.00550738
6.75975e-05
0.00492571
0.00943668
0.0136405
0.0173443
0.020455
0.0230167
0.0250793
0.0267709
0.0283322
0.0298375
0.0310543
0.0317123
0.0317122
0.0310539
0.0298369
0.0283312
0.0267695
0.0250774
0.0230144
0.0204523
0.0173413
0.0136373
0.00943365
0.00492304
6.55151e-05
-0.00550872
-0.0120639
-0.0193199
-0.0264717
-0.032422
-0.036059
-0.0367507
-0.0348981
-0.0318849
-0.0291554
-0.0272956
-0.0259865
-0.0246248
-0.0229072
-0.0210555
-0.0196403
-0.0190466
-0.0187792
-0.0173168
-0.0131062
-0.00593135
0.00277533
0.0109246
0.0170244
0.0206156
0.0218919
0.0212129
0.018904
0.0152746
0.0106022
0.00513531
-0.000730449
-0.00620005
-0.0100839
-0.0111298
-0.00867145
-0.00327329
-0.00317715
-0.00825524
-0.0100845
-0.00809114
-0.00307882
0.00352624
0.0103809
0.0165548
0.0215321
0.0249748
0.0265978
0.0261916
0.02356
0.0183687
0.0103331
-0.000109102
-0.0111922
-0.0202937
-0.0255578
-0.0272428
-0.0273535
-0.0278482
-0.0293297
-0.0312533
-0.0328596
-0.0338842
-0.0347974
-0.0365157
-0.0395926
-0.0433325
-0.0458255
-0.0451957
-0.0408614
-0.0336194
-0.0249127
-0.0161609
-0.00836069
-0.00176639
0.00409405
0.00978793
0.0153987
0.0206744
0.0254621
0.0297472
0.0335073
0.0368377
0.0399755
0.0429014
0.0451851
0.0463997
0.0463995
0.0451843
0.0429001
0.0399737
0.0368353
0.0335043
0.0297437
0.0254583
0.0206705
0.0153949
0.00978455
0.00409135
-0.00176822
-0.00836152
-0.0161607
-0.0249115
-0.0336171
-0.0408582
-0.0451918
-0.0458212
-0.0433281
-0.0395885
-0.0365121
-0.0347945
-0.0338821
-0.0328584
-0.0312528
-0.02933
-0.0278492
-0.0273551
-0.027245
-0.0255602
-0.020296
-0.0111942
-0.000110711
0.0103318
0.0183678
0.0235594
0.0261912
0.0265976
0.0249748
0.0215323
0.0165551
0.0103814
0.00352687
-0.00307807
-0.00809037
-0.0100839
-0.00825479
-0.00317698
-0.00232998
-0.00578727
-0.00620071
-0.00307882
0.00277151
0.00998704
0.0172595
0.0235745
0.0282284
0.0307105
0.0307317
0.0283021
0.0235365
0.016282
0.00622122
-0.00628951
-0.0193565
-0.0299822
-0.0359691
-0.0375781
-0.0371494
-0.0369857
-0.0377867
-0.0389055
-0.0394852
-0.0393194
-0.0391323
-0.0402077
-0.0433654
-0.047833
-0.0512648
-0.0512789
-0.0470377
-0.0393968
-0.0300273
-0.0205807
-0.0121731
-0.00499737
0.00161596
0.0084002
0.0154532
0.0224303
0.029073
0.035268
0.0409038
0.0460342
0.0508754
0.0553032
0.0586985
0.0604903
0.0604899
0.0586972
0.0553011
0.0508725
0.0460307
0.0408997
0.0352635
0.0290683
0.0224258
0.0154492
0.00839696
0.0016137
-0.00499851
-0.0121731
-0.0205796
-0.0300253
-0.0393938
-0.0470341
-0.0512747
-0.0512604
-0.0478286
-0.0433614
-0.0402043
-0.0391296
-0.0393175
-0.039484
-0.038905
-0.0377869
-0.0369866
-0.037151
-0.0375802
-0.0359715
-0.0299846
-0.0193585
-0.00629115
0.00622
0.0162812
0.0235359
0.0283018
0.0307316
0.0307104
0.0282285
0.0235747
0.0172599
0.0099876
0.00277222
-0.00307807
-0.00620005
-0.00578682
-0.00232982
-0.00103581
-0.00212387
-0.000731022
0.00352624
0.00998704
0.0175529
0.0250731
0.0314266
0.0355853
0.0367259
0.0345107
0.0292433
0.021503
0.0114823
-0.00105618
-0.01581
-0.0308169
-0.0428075
-0.0493073
-0.0505505
-0.0491161
-0.0475825
-0.0467624
-0.0459876
-0.0444205
-0.0420475
-0.0399622
-0.0398743
-0.0428763
-0.0481239
-0.0528517
-0.0541533
-0.0508542
-0.0437564
-0.0346478
-0.0253102
-0.0169053
-0.00954677
-0.00240108
0.00539068
0.0139113
0.022683
0.0312891
0.039487
0.0470752
0.0540597
0.0606164
0.0665234
0.0710074
0.07337
0.0733694
0.0710057
0.0665207
0.0606128
0.0540553
0.0470704
0.0394819
0.0312841
0.0226784
0.0139075
0.00538789
-0.00240268
-0.00954714
-0.0169045
-0.0253084
-0.0346452
-0.0437531
-0.0508505
-0.0541493
-0.0528476
-0.0481198
-0.0428726
-0.0398712
-0.0399598
-0.0420457
-0.0444194
-0.0459871
-0.0467626
-0.0475834
-0.0491177
-0.0505526
-0.0493097
-0.0428099
-0.0308189
-0.0158115
-0.00105718
0.0114817
0.0215027
0.0292432
0.0345105
0.0367258
0.0355852
0.0314265
0.0250732
0.0175532
0.0099876
0.00352688
-0.000730439
-0.00212347
-0.00103566
0.00040906
0.00190901
0.00513485
0.0103809
0.0172595
0.0250731
0.0328829
0.0394016
0.0431396
0.0428351
0.0380501
0.0294138
0.0180608
0.00465401
-0.010841
-0.0280968
-0.045085
-0.0583362
-0.0651691
-0.0657902
-0.0629486
-0.0594359
-0.056176
-0.0525321
-0.0477743
-0.0421975
-0.0373742
-0.0354969
-0.037938
-0.0437925
-0.049919
-0.0529196
-0.0512554
-0.0455962
-0.0377438
-0.0295011
-0.0219812
-0.0151701
-0.00806315
0.00032888
0.0100885
0.0205993
0.0312551
0.0416562
0.0514897
0.0606659
0.069252
0.0768932
0.0826619
0.0857126
0.085712
0.08266
0.0768902
0.0692481
0.0606613
0.0514848
0.0416512
0.0312504
0.0205952
0.0100853
0.000326784
-0.00806406
-0.0151698
-0.02198
-0.029499
-0.0377411
-0.0455931
-0.0512521
-0.052916
-0.0499154
-0.0437889
-0.0379347
-0.0354941
-0.037372
-0.0421959
-0.0477733
-0.0525317
-0.0561763
-0.0594368
-0.0629502
-0.0657923
-0.0651714
-0.0583384
-0.0450868
-0.028098
-0.0108416
0.0046538
0.0180608
0.0294139
0.03805
0.0428348
0.0431392
0.0394012
0.0328827
0.0250732
0.0172599
0.0103814
0.00513532
0.00190934
0.000409178
0.00180597
0.00576052
0.0106019
0.0165548
0.0235745
0.0314266
0.0394016
0.0460213
0.0492943
0.0474953
0.0400793
0.027997
0.012939
-0.00393253
-0.0223837
-0.0419988
-0.0606856
-0.074859
-0.0817327
-0.0815208
-0.0770897
-0.0713585
-0.0653031
-0.0582979
-0.049737
-0.0402745
-0.0320257
-0.0277109
-0.0290015
-0.0349693
-0.0421904
-0.0468861
-0.0472091
-0.0436748
-0.0380254
-0.0319844
-0.0265067
-0.0213534
-0.0152798
-0.0071049
0.00332128
0.0152945
0.028028
0.0409405
0.053556
0.0655959
0.0769001
0.0868856
0.0944089
0.0984125
0.0984119
0.0944071
0.0868828
0.0768966
0.0655919
0.0535517
0.0409364
0.0280243
0.0152914
0.00331905
-0.00710612
-0.01528
-0.0213527
-0.0265052
-0.0319824
-0.038023
-0.0436723
-0.0472065
-0.0468833
-0.0421876
-0.0349664
-0.0289987
-0.0277085
-0.0320238
-0.0402732
-0.0497363
-0.0582976
-0.0653034
-0.0713594
-0.0770911
-0.0815225
-0.0817346
-0.0748607
-0.0606868
-0.0419994
-0.0223839
-0.00393234
0.0129393
0.0279972
0.0400792
0.0474949
0.0492937
0.0460207
0.0394012
0.0314265
0.0235747
0.0165551
0.0106023
0.00576075
0.00180606
0.00305843
0.00916334
0.0152745
0.0215321
0.0282284
0.0355853
0.0431396
0.0492943
0.0516778
0.0482266
0.0383545
0.0232993
0.00519913
-0.0143874
-0.035
-0.0561368
-0.0756844
-0.0900627
-0.0965184
-0.0953321
-0.0894317
-0.0817426
-0.0731722
-0.0630131
-0.050721
-0.037277
-0.0253359
-0.0181556
-0.017724
-0.023144
-0.0308348
-0.0367994
-0.0389968
-0.0378197
-0.0349243
-0.0318985
-0.0294524
-0.0270191
-0.0230267
-0.0160297
-0.00572226
0.00719793
0.0218183
0.0373694
0.0531608
0.0686395
0.083304
0.0962323
0.105976
0.111191
0.11119
0.105974
0.09623
0.0833012
0.0686363
0.0531577
0.0373665
0.0218158
0.00719617
-0.00572323
-0.0160298
-0.0230261
-0.0270179
-0.0294506
-0.0318965
-0.0349223
-0.0378178
-0.038995
-0.0367975
-0.030833
-0.0231421
-0.0177221
-0.018154
-0.0253347
-0.0372763
-0.0507206
-0.0630131
-0.0731725
-0.0817433
-0.0894326
-0.0953333
-0.0965196
-0.0900637
-0.075685
-0.0561369
-0.0349997
-0.0143869
0.00519953
0.0232995
0.0383544
0.0482262
0.0516772
0.0492937
0.0431392
0.0355852
0.0282285
0.0215323
0.0152747
0.00916347
0.00305848
0.00410477
0.0119487
0.018904
0.0249748
0.0307105
0.0367259
0.0428351
0.0474953
0.0482266
0.0428868
0.030972
0.0139375
-0.00584119
-0.0266353
-0.0479044
-0.0691328
-0.088268
-0.101879
-0.107395
-0.105221
-0.0982742
-0.0893418
-0.0791145
-0.0666765
-0.0514333
-0.034598
-0.0192915
-0.00926453
-0.00680967
-0.0111073
-0.018541
-0.0250535
-0.0285336
-0.0293129
-0.0289927
-0.0290404
-0.0299041
-0.0306448
-0.0293298
-0.0242247
-0.0148059
-0.00166029
0.0142602
0.0320308
0.0507466
0.0695656
0.0876073
0.103551
0.11559
0.122062
0.122061
0.115589
0.103549
0.0876052
0.0695634
0.0507446
0.0320292
0.0142592
-0.00166061
-0.0148055
-0.0242237
-0.0293282
-0.0306428
-0.0299019
-0.0290383
-0.0289909
-0.0293115
-0.0285325
-0.0250526
-0.0185402
-0.0111065
-0.00680896
-0.00926402
-0.0192913
-0.0345981
-0.0514336
-0.0666768
-0.0791148
-0.0893421
-0.0982746
-0.105222
-0.107396
-0.101879
-0.0882679
-0.0691325
-0.0479039
-0.0266348
-0.0058409
0.0139375
0.0309718
0.0428864
0.0482262
0.0474949
0.0428348
0.0367258
0.0307104
0.0249748
0.018904
0.0119487
0.00410478
0.0048638
0.0139032
0.021213
0.0265978
0.0307317
0.0345107
0.0380501
0.0400793
0.0383545
0.030972
0.0176464
-5.48816e-05
-0.0197897
-0.0399452
-0.060094
-0.0798079
-0.0971849
-0.109076
-0.113227
-0.110198
-0.102814
-0.0935834
-0.0828531
-0.0693915
-0.0524443
-0.0333326
-0.0155177
-0.00313703
0.00126747
-0.00158377
-0.00813272
-0.0143787
-0.0182313
-0.0200287
-0.0213883
-0.0237369
-0.0273233
-0.030884
-0.0321818
-0.0292411
-0.0213078
-0.00877964
0.00744571
0.0263643
0.046933
0.0681031
0.0886748
0.106958
0.120811
0.128285
0.128284
0.12081
0.106957
0.0886736
0.068102
0.0469322
0.0263641
0.00744612
-0.00877859
-0.0213061
-0.029239
-0.0321794
-0.0308815
-0.0273208
-0.0237347
-0.0213867
-0.0200277
-0.0182309
-0.0143786
-0.00813285
-0.00158402
0.00126711
-0.00313754
-0.0155184
-0.0333334
-0.0524451
-0.0693921
-0.0828535
-0.0935836
-0.102814
-0.110198
-0.113226
-0.109076
-0.0971846
-0.0798075
-0.0600937
-0.039945
-0.0197897
-5.50688e-05
0.0176461
0.0309718
0.0383544
0.0400792
0.03805
0.0345106
0.0307316
0.0265976
0.0212129
0.0139031
0.00486377
0.00523124
0.0147604
0.0218923
0.0261916
0.0283021
0.0292433
0.0294138
0.027997
0.0232993
0.0139375
-5.48816e-05
-0.0171228
-0.035218
-0.0530991
-0.0706131
-0.0874938
-0.102051
-0.111513
-0.11403
-0.110335
-0.103078
-0.0943876
-0.0841971
-0.0709172
-0.0535662
-0.0334538
-0.0142261
-0.000258154
0.00574728
0.00440802
-0.000846009
-0.00614726
-0.0094776
-0.0112276
-0.0131032
-0.0165876
-0.021838
-0.0273809
-0.0307926
-0.0299476
-0.0238893
-0.0127904
0.00257711
0.0212282
0.0421088
0.064102
0.0858074
0.105262
0.120078
0.128103
0.128103
0.120078
0.105262
0.0858074
0.0641024
0.0421096
0.0212296
0.00257902
-0.0127881
-0.0238866
-0.0299448
-0.0307897
-0.0273782
-0.0218356
-0.0165858
-0.0131021
-0.0112272
-0.00947783
-0.0061479
-0.000846885
0.00440702
0.00574625
-0.000259206
-0.0142272
-0.0334549
-0.0535671
-0.0709179
-0.0841974
-0.0943876
-0.103078
-0.110335
-0.11403
-0.111513
-0.102051
-0.0874937
-0.0706131
-0.0530993
-0.0352184
-0.0171231
-5.50729e-05
0.0139375
0.0232995
0.0279972
0.0294139
0.0292432
0.0283018
0.0261913
0.0218919
0.0147601
0.00523117
0.00509847
0.0142401
0.0206161
0.02356
0.0235365
0.021503
0.0180608
0.012939
0.00519913
-0.00584119
-0.0197897
-0.035218
-0.0505587
-0.0650994
-0.0790394
-0.0922939
-0.103403
-0.110022
-0.110758
-0.106506
-0.0996858
-0.0919937
-0.0829569
-0.0706607
-0.0538829
-0.0338257
-0.0141629
0.00065109
0.00784549
0.00793274
0.00414883
0.000164065
-0.00210363
-0.00310583
-0.00466111
-0.00836617
-0.0143793
-0.0211363
-0.0261445
-0.0272131
-0.0232244
-0.0141339
-0.000558483
0.0166146
0.0364393
0.0578533
0.079367
0.0988553
0.1138
0.121936
0.121936
0.113801
0.0988567
0.079369
0.0578558
0.0364424
0.0166181
-0.000554851
-0.0141303
-0.0232209
-0.0272099
-0.0261418
-0.0211341
-0.0143777
-0.00836533
-0.00466105
-0.00310644
-0.00210472
0.000162717
0.0041474
0.00793137
0.00784429
0.000650078
-0.0141638
-0.0338265
-0.0538835
-0.0706611
-0.0829571
-0.0919937
-0.0996858
-0.106506
-0.110758
-0.110022
-0.103403
-0.092294
-0.0790397
-0.0651
-0.0505592
-0.0352184
-0.0197897
-0.00584091
0.00519952
0.0129393
0.0180608
0.0215027
0.0235359
0.0235594
0.0206156
0.0142397
0.00509835
0.00436965
0.0120785
0.0170252
0.0183687
0.016282
0.0114823
0.00465401
-0.00393253
-0.0143874
-0.0266353
-0.0399452
-0.0530991
-0.0650994
-0.0758094
-0.0857746
-0.0950688
-0.102458
-0.106046
-0.104901
-0.100065
-0.0936817
-0.0870118
-0.0792385
-0.0682117
-0.0525026
-0.0331388
-0.0136853
0.00146163
0.00953993
0.0109468
0.00865073
0.00604715
0.00492493
0.00479835
0.00377941
0.000171277
-0.00622258
-0.0138209
-0.0201336
-0.0229535
-0.0210391
-0.0141631
-0.00280117
0.0122884
0.0303277
0.050369
0.0708958
0.089707
0.10425
0.112217
0.112218
0.104252
0.0897104
0.0709003
0.0503742
0.0303335
0.0122942
-0.00279567
-0.0141583
-0.0210351
-0.0229504
-0.0201315
-0.0138198
-0.00622239
0.000170628
0.00377805
0.0047965
0.00492286
0.00604509
0.00864887
0.0109453
0.00953891
0.00146102
-0.0136856
-0.033139
-0.0525026
-0.0682116
-0.0792384
-0.0870117
-0.0936817
-0.100065
-0.104901
-0.106046
-0.102459
-0.0950691
-0.0857751
-0.07581
-0.0651
-0.0530993
-0.039945
-0.0266348
-0.0143869
-0.00393234
0.0046538
0.0114817
0.0162812
0.0183678
0.0170244
0.012078
0.00436947
0.00301537
0.00817497
0.0109256
0.0103331
0.00622122
-0.00105618
-0.010841
-0.0223837
-0.035
-0.0479044
-0.060094
-0.0706131
-0.0790394
-0.0857746
-0.0916612
-0.096906
-0.100507
-0.101015
-0.0979453
-0.092429
-0.086301
-0.0804074
-0.0736784
-0.0638459
-0.0493354
-0.0309591
-0.0120639
0.00312226
0.0119091
0.0145723
0.0137427
0.0124504
0.0123115
0.0128444
0.0121747
0.00856832
0.00180051
-0.0065567
-0.0140455
-0.0184641
-0.018473
-0.0136977
-0.00450231
0.00847045
0.0246066
0.0430723
0.0623468
0.0802079
0.0941333
0.101817
0.101818
0.0941367
0.0802133
0.0623537
0.0430801
0.0246149
0.00847844
-0.00449517
-0.0136918
-0.0184686
-0.0184613
-0.0140442
-0.00655675
0.00179932
0.00856623
0.012172
0.0128414
0.0123086
0.0124478
0.0137406
0.0145709
0.0119084
0.00312207
-0.0120638
-0.0309589
-0.0493351
-0.0638456
-0.0736783
-0.0804073
-0.0863011
-0.092429
-0.0979452
-0.101015
-0.100507
-0.0969061
-0.0916615
-0.085775
-0.0790397
-0.0706131
-0.0600937
-0.0479039
-0.0349997
-0.0223839
-0.0108416
-0.00105719
0.00622
0.0103318
0.0109245
0.00817427
0.00301513
0.00117121
0.00288699
0.00277671
-0.000109102
-0.00628951
-0.01581
-0.0280968
-0.0419988
-0.0561368
-0.0691328
-0.0798079
-0.0874938
-0.0922939
-0.0950688
-0.096906
-0.0981493
-0.0980546
-0.0956193
-0.0907448
-0.084578
-0.078601
-0.0732718
-0.0673644
-0.0586102
-0.045357
-0.0281769
-0.0101102
0.00487611
0.0142249
0.0181034
0.0187625
0.0187883
0.0195669
0.0206368
0.020206
0.0165619
0.00946869
0.000473801
-0.00802069
-0.013841
-0.0155686
-0.0126943
-0.00548259
0.00551492
0.0198125
0.0366719
0.0545892
0.0713679
0.0845609
0.0918942
0.0918956
0.0845651
0.0713745
0.0545975
0.0366813
0.0198222
0.0055241
-0.00547456
-0.0126879
-0.0155641
-0.0138383
-0.0080199
0.000473022
0.00946669
0.0165591
0.0202027
0.0206334
0.0195638
0.0187857
0.0187606
0.0181021
0.0142244
0.00487608
-0.01011
-0.0281767
-0.0453569
-0.0586101
-0.0673644
-0.0732719
-0.0786011
-0.084578
-0.0907447
-0.0956191
-0.0980543
-0.0981491
-0.0969061
-0.0950691
-0.092294
-0.0874937
-0.0798075
-0.0691325
-0.0561369
-0.0419994
-0.028098
-0.0158115
-0.00629117
-0.000110731
0.00277532
0.00288604
0.00117088
-0.000800336
-0.00276916
-0.0059296
-0.0111922
-0.0193565
-0.0308169
-0.045085
-0.0606856
-0.0756844
-0.088268
-0.0971849
-0.102051
-0.103403
-0.102458
-0.100507
-0.0980546
-0.0946552
-0.0897346
-0.0835008
-0.0770204
-0.0713738
-0.0666579
-0.0615794
-0.0539747
-0.0421758
-0.0264984
-0.00960183
0.00489164
0.0146196
0.0196727
0.021918
0.023453
0.0253768
0.0272236
0.0272986
0.0239287
0.0168575
0.0075731
-0.00162298
-0.00862525
-0.0119546
-0.010951
-0.00575299
0.00317762
0.0154596
0.0304518
0.0467141
0.062132
0.0743729
0.0812307
0.0812321
0.0743771
0.0621385
0.0467224
0.0304611
0.0154691
0.00318656
-0.00574521
-0.0109448
-0.0119503
-0.00862281
-0.00162234
0.00757226
0.0168556
0.0239261
0.0272957
0.0272207
0.0253743
0.023451
0.0219165
0.0196719
0.0146192
0.00489146
-0.00960208
-0.0264988
-0.0421764
-0.0539753
-0.06158
-0.0666584
-0.0713741
-0.0770203
-0.0835005
-0.0897341
-0.0946548
-0.0980543
-0.100507
-0.102459
-0.103403
-0.102051
-0.0971846
-0.0882679
-0.075685
-0.0606868
-0.0450868
-0.030819
-0.0193586
-0.0111942
-0.00593138
-0.0027704
-0.000800789
-0.00242321
-0.00742955
-0.0131042
-0.0202937
-0.0299822
-0.0428075
-0.0583362
-0.074859
-0.0900627
-0.101879
-0.109076
-0.111513
-0.110022
-0.106046
-0.101015
-0.0956193
-0.0897346
-0.0831822
-0.0763847
-0.0702304
-0.065356
-0.0615299
-0.0574751
-0.0512247
-0.0411508
-0.0273025
-0.0118969
0.00185871
0.0118414
0.018089
0.0221012
0.0254826
0.0290043
0.0321444
0.0332724
0.0307313
0.0242086
0.0150788
0.00548765
-0.00257086
-0.0075705
-0.00866747
-0.00581533
0.000649463
0.0104557
0.0230817
0.0372079
0.0508541
0.061832
0.0680388
0.06804
0.0618353
0.0508594
0.0372145
0.0230892
0.0104634
0.000656753
-0.00580892
-0.00866226
-0.00756673
-0.00256861
0.00548848
0.0150785
0.0242076
0.0307298
0.0332707
0.0321428
0.0290029
0.0254817
0.0221006
0.0180887
0.0118411
0.00185817
-0.0118978
-0.0273037
-0.041152
-0.0512258
-0.057476
-0.0615306
-0.0653563
-0.0702304
-0.0763844
-0.0831817
-0.0897341
-0.0956191
-0.101015
-0.106046
-0.110022
-0.111513
-0.109076
-0.101879
-0.0900637
-0.0748607
-0.0583384
-0.0428099
-0.0299846
-0.0202961
-0.0131063
-0.00743105
-0.00242377
-0.00338213
-0.0101802
-0.0173146
-0.0255578
-0.0359691
-0.0493073
-0.0651691
-0.0817327
-0.0965184
-0.107395
-0.113227
-0.11403
-0.110758
-0.104901
-0.0979453
-0.0907448
-0.0835008
-0.0763847
-0.0699433
-0.0648098
-0.0611595
-0.0584772
-0.0555816
-0.0507823
-0.0425415
-0.0306399
-0.016805
-0.00378389
0.00654763
0.0141592
0.020188
0.0257628
0.0313135
0.0362166
0.0388595
0.0375684
0.0319372
0.0231856
0.0132777
0.00408803
-0.00280608
-0.00634419
-0.00623022
-0.00261985
0.00434486
0.0142705
0.0259783
0.0376309
0.047178
0.0526351
0.0526357
0.04718
0.037634
0.0259823
0.0142751
0.00434969
-0.0026151
-0.00622586
-0.00634044
-0.00280314
0.0040901
0.0132789
0.0231863
0.0319375
0.0375685
0.0388594
0.0362165
0.0313136
0.025763
0.0201882
0.0141592
0.00654726
-0.00378485
-0.0168065
-0.0306416
-0.0425432
-0.0507836
-0.0555825
-0.0584777
-0.0611597
-0.0648097
-0.069943
-0.0763844
-0.0835005
-0.0907447
-0.0979453
-0.104901
-0.110758
-0.11403
-0.113226
-0.107396
-0.0965196
-0.0817346
-0.0651714
-0.0493097
-0.0359715
-0.0255603
-0.0173168
-0.0101818
-0.00338274
-0.00372639
-0.0111633
-0.0187771
-0.0272428
-0.0375781
-0.0505505
-0.0657902
-0.0815208
-0.0953321
-0.105221
-0.110198
-0.110335
-0.106506
-0.100065
-0.092429
-0.084578
-0.0770204
-0.0702304
-0.0648098
-0.0610968
-0.0588219
-0.0572454
-0.0553551
-0.0518058
-0.045196
-0.0350422
-0.0225491
-0.00997795
0.00101435
0.0102698
0.0185342
0.0264763
0.0342003
0.0409691
0.0451686
0.0450955
0.0402374
0.0316589
0.021179
0.0106082
0.00160827
-0.00452398
-0.00720491
-0.00636962
-0.00203199
0.00550186
0.0151383
0.0251176
0.0334646
0.0382848
0.038285
0.0334651
0.0251183
0.0151393
0.00550325
-0.00203025
-0.00636759
-0.00720271
-0.00452175
0.00161041
0.0106102
0.0211808
0.0316607
0.0402391
0.0450971
0.04517
0.0409704
0.0342015
0.0264773
0.0185348
0.0102699
0.00101381
-0.00997921
-0.0225509
-0.0350441
-0.0451976
-0.0518069
-0.0553556
-0.0572455
-0.0588218
-0.0610966
-0.0648097
-0.0702304
-0.0770204
-0.084578
-0.092429
-0.100065
-0.106506
-0.110335
-0.110198
-0.105222
-0.0953333
-0.0815225
-0.0657923
-0.0505526
-0.0375803
-0.027245
-0.0187792
-0.0111648
-0.00372699
-0.00379577
-0.0113669
-0.0190449
-0.0273535
-0.0371494
-0.0491161
-0.0629486
-0.0770897
-0.0894317
-0.0982742
-0.102814
-0.103078
-0.0996858
-0.0936817
-0.086301
-0.078601
-0.0713738
-0.065356
-0.0611595
-0.0588219
-0.0576742
-0.0568223
-0.0554924
-0.0527445
-0.0473577
-0.0385949
-0.0271115
-0.0146641
-0.00272579
0.00834071
0.0188363
0.0289772
0.0385811
0.0468287
0.0521263
0.05276
0.048128
0.0391785
0.0276765
0.0154799
0.00439838
-0.004031
-0.00894514
-0.0100677
-0.00733279
-0.00106076
0.0076116
0.0168722
0.0247094
0.0292498
0.0292495
0.0247085
0.0168708
0.00761004
-0.00106219
-0.00733379
-0.0100681
-0.00894484
-0.00403005
0.00439991
0.015482
0.027679
0.0391814
0.0481309
0.0527628
0.0521288
0.0468309
0.0385829
0.0289785
0.018837
0.00834073
-0.00272654
-0.0146655
-0.0271133
-0.0385967
-0.047359
-0.0527451
-0.0554924
-0.0568219
-0.0576739
-0.0588218
-0.0611597
-0.0653564
-0.0713741
-0.0786011
-0.0863011
-0.0936817
-0.0996858
-0.103078
-0.102814
-0.0982746
-0.0894326
-0.0770911
-0.0629502
-0.0491177
-0.037151
-0.0273551
-0.0190466
-0.0113683
-0.00379629
-0.0039279
-0.0117668
-0.0196392
-0.0278482
-0.0369857
-0.0475825
-0.0594359
-0.0713585
-0.0817426
-0.0893418
-0.0935834
-0.0943876
-0.0919937
-0.0870118
-0.0804074
-0.0732718
-0.0666579
-0.0615299
-0.0584772
-0.0572454
-0.0568223
-0.0562335
-0.055006
-0.0526519
-0.0481709
-0.0405896
-0.029997
-0.0176214
-0.00476672
0.0079423
0.0203135
0.0321184
0.0429403
0.0519359
0.0575813
0.0581917
0.0531082
0.0432144
0.0303236
0.0164712
0.00369654
-0.00622501
-0.0122017
-0.0138153
-0.011022
-0.00429809
0.00501822
0.0149139
0.0232165
0.0279861
0.0279855
0.0232146
0.014911
0.00501467
-0.00430171
-0.0110252
-0.0138177
-0.012203
-0.0062251
0.00369764
0.0164734
0.0303268
0.0432183
0.0531123
0.0581956
0.0575848
0.0519388
0.0429425
0.0321198
0.0203141
0.0079421
-0.00476769
-0.0176229
-0.0299988
-0.0405912
-0.0481719
-0.0526523
-0.0550057
-0.056233
-0.0568219
-0.0572455
-0.0584777
-0.0615306
-0.0666584
-0.0732719
-0.0804073
-0.0870117
-0.0919937
-0.0943876
-0.0935836
-0.0893421
-0.0817433
-0.0713594
-0.0594368
-0.0475834
-0.0369866
-0.0278492
-0.0196403
-0.0117678
-0.00392828
-0.00424514
-0.0127021
-0.0210551
-0.0293297
-0.0377867
-0.0467624
-0.056176
-0.0653031
-0.0731722
-0.0791145
-0.0828531
-0.0841971
-0.0829569
-0.0792385
-0.0736784
-0.0673644
-0.0615794
-0.0574751
-0.0555816
-0.0553551
-0.0554924
-0.055006
-0.0537651
-0.0517551
-0.0482197
-0.0419724
-0.0325334
-0.0205779
-0.00723097
0.0066025
0.0202204
0.032969
0.0442467
0.0532376
0.0585331
0.0585191
0.0525109
0.0413611
0.0269988
0.0117407
-0.00205954
-0.0123788
-0.017961
-0.0183553
-0.0136752
-0.00470038
0.00689133
0.0187703
0.0285063
0.034013
0.0340121
0.0285037
0.0187662
0.00688635
-0.00470562
-0.0136801
-0.0183593
-0.0179637
-0.0123798
-0.00205882
0.0117431
0.0270026
0.0413658
0.0525159
0.058524
0.0585375
0.0532412
0.0442494
0.0329707
0.020221
0.00660217
-0.00723211
-0.0205796
-0.0325353
-0.0419741
-0.0482209
-0.0517557
-0.0537651
-0.0550057
-0.0554924
-0.0553556
-0.0555825
-0.057476
-0.06158
-0.0673644
-0.0736783
-0.0792384
-0.0829571
-0.0841974
-0.0828535
-0.0791148
-0.0731725
-0.0653034
-0.0561763
-0.0467626
-0.0377869
-0.0293299
-0.0210555
-0.0127025
-0.00424533
-0.00468017
-0.013957
-0.0229076
-0.0312533
-0.0389055
-0.0459876
-0.0525321
-0.0582979
-0.0630131
-0.0666765
-0.0693915
-0.0709172
-0.0706607
-0.0682117
-0.0638459
-0.0586102
-0.0539747
-0.0512247
-0.0507823
-0.0518058
-0.0527445
-0.0526519
-0.0517551
-0.0504948
-0.0483505
-0.0439384
-0.0362223
-0.0253152
-0.0121465
0.00211264
0.0162745
0.0293007
0.0404414
0.048928
0.0534842
0.0525918
0.0455593
0.0332074
0.0175875
0.001345
-0.0127834
-0.0224955
-0.0264136
-0.0241583
-0.0161302
-0.00353177
0.0115328
0.0263628
0.0382251
0.0448355
0.0448345
0.038222
0.026358
0.0115269
-0.00353817
-0.0161364
-0.0241637
-0.0264175
-0.0224975
-0.0127832
0.00134729
0.0175915
0.0332126
0.0455651
0.0525975
0.0534895
0.0489325
0.0404448
0.0293028
0.0162754
0.00211247
-0.0121476
-0.025317
-0.0362244
-0.0439405
-0.0483522
-0.0504959
-0.0517557
-0.0526523
-0.0527451
-0.0518069
-0.0507837
-0.0512259
-0.0539753
-0.0586102
-0.0638456
-0.0682116
-0.0706611
-0.0709179
-0.0693921
-0.0666768
-0.0630131
-0.0582976
-0.0525317
-0.0459871
-0.038905
-0.0312528
-0.0229072
-0.0139568
-0.00468013
-0.0051204
-0.015189
-0.0246259
-0.0328596
-0.0394852
-0.0444205
-0.0477743
-0.049737
-0.050721
-0.0514333
-0.0524443
-0.0535662
-0.0538829
-0.0525026
-0.0493354
-0.045357
-0.0421758
-0.0411508
-0.0425415
-0.045196
-0.0473577
-0.0481709
-0.0482197
-0.0483505
-0.0482327
-0.0462822
-0.0409325
-0.031754
-0.0194786
-0.00551136
0.00853838
0.0213159
0.0319573
0.0397326
0.0434826
0.0417908
0.0339627
0.0207571
0.0042979
-0.0124632
-0.0263825
-0.0348459
-0.0363628
-0.0306847
-0.018579
-0.00173391
0.0172941
0.0354415
0.0496856
0.0575368
0.0575357
0.0496822
0.0354364
0.0172877
-0.00174094
-0.0185861
-0.0306911
-0.0363676
-0.0348487
-0.0263831
-0.0124616
0.00430142
0.020762
0.0339686
0.041797
0.0434886
0.0397379
0.0319615
0.0213188
0.00853993
-0.005511
-0.0194794
-0.0317556
-0.0409347
-0.0462846
-0.0482349
-0.0483522
-0.0482209
-0.0481719
-0.047359
-0.0451976
-0.0425432
-0.041152
-0.0421764
-0.0453569
-0.0493351
-0.0525026
-0.0538835
-0.0535671
-0.0524451
-0.0514336
-0.0507206
-0.0497362
-0.0477733
-0.0444194
-0.039484
-0.0328584
-0.0246248
-0.0151882
-0.00512012
-0.00552213
-0.0162635
-0.0259885
-0.0338842
-0.0393194
-0.0420475
-0.0421975
-0.0402745
-0.037277
-0.034598
-0.0333326
-0.0334538
-0.0338257
-0.0331388
-0.0309591
-0.0281769
-0.0264984
-0.0273025
-0.0306399
-0.0350422
-0.0385949
-0.0405896
-0.0419724
-0.0439384
-0.0462822
-0.0472097
-0.0446696
-0.0377447
-0.0269893
-0.0140001
-0.000711697
0.0113085
0.0211382
0.0280831
0.0310771
0.0287992
0.0205486
0.00698464
-0.00977649
-0.0265638
-0.0398773
-0.0468032
-0.0457398
-0.0365737
-0.0204404
0.00049545
0.0232551
0.0444683
0.0608896
0.069871
0.0698699
0.0608865
0.0444635
0.023249
0.00048856
-0.0204475
-0.0365803
-0.0457453
-0.0468069
-0.0398791
-0.0265636
-0.00977431
0.00698849
0.0205537
0.0288052
0.0310834
0.0280889
0.021143
0.0113121
-0.000709259
-0.0139989
-0.0269893
-0.0377458
-0.0446715
-0.047212
-0.0462846
-0.0439405
-0.0419741
-0.0405912
-0.0385967
-0.0350442
-0.0306417
-0.0273038
-0.0264988
-0.0281767
-0.0309589
-0.033139
-0.0338265
-0.0334548
-0.0333334
-0.0345981
-0.0372763
-0.0402732
-0.0421959
-0.0420457
-0.0393175
-0.0338821
-0.0259865
-0.0162621
-0.0055216
-0.00594433
-0.0173571
-0.0272983
-0.0347974
-0.0391323
-0.0399622
-0.0373742
-0.0320257
-0.0253359
-0.0192915
-0.0155177
-0.0142261
-0.0141629
-0.0136853
-0.0120639
-0.0101102
-0.00960183
-0.0118969
-0.016805
-0.0225491
-0.0271115
-0.029997
-0.0325334
-0.0362223
-0.0409325
-0.0446696
-0.0449767
-0.0405396
-0.0317731
-0.0204196
-0.0086211
0.00198204
0.0105142
0.016356
0.0185288
0.0157956
0.00744564
-0.00598447
-0.0224614
-0.0387178
-0.0510255
-0.0562635
-0.0527537
-0.0404914
-0.0209109
0.00342418
0.0291847
0.0527765
0.0708347
0.080649
0.0806481
0.0708323
0.0527727
0.0291797
0.00341836
-0.0209171
-0.0404974
-0.0527592
-0.0562679
-0.0510287
-0.0387194
-0.0224613
-0.00598247
0.00744934
0.0158006
0.0185345
0.0163617
0.0105193
0.00198628
-0.00861788
-0.0204175
-0.0317722
-0.0405398
-0.0449779
-0.0446715
-0.0409347
-0.0362245
-0.0325353
-0.0299988
-0.0271133
-0.0225509
-0.0168065
-0.0118978
-0.00960209
-0.01011
-0.0120638
-0.0136856
-0.0141638
-0.0142272
-0.0155184
-0.0192912
-0.0253347
-0.0320238
-0.0373719
-0.0399597
-0.0391295
-0.0347945
-0.0272956
-0.017355
-0.00594357
-0.0064953
-0.0188078
-0.0291588
-0.0365157
-0.0402077
-0.0398743
-0.0354969
-0.0277109
-0.0181556
-0.00926453
-0.00313703
-0.000258154
0.00065109
0.00146163
0.00312226
0.00487611
0.00489164
0.00185871
-0.00378389
-0.00997795
-0.0146641
-0.0176214
-0.0205779
-0.0253152
-0.031754
-0.0377447
-0.0405396
-0.038545
-0.0320845
-0.0229977
-0.0135079
-0.00516228
0.00136319
0.00561488
0.00671817
0.0035008
-0.00476964
-0.0176843
-0.0333369
-0.0484786
-0.0593177
-0.0626809
-0.056899
-0.042057
-0.0197875
0.00706588