/*--------------------------------*- C++ -*----------------------------------*\
  =========                 |
  \\      /  F ield         | OpenFOAM: The Open Source CFD Toolbox
   \\    /   O peration     | Website:  https://openfoam.org
    \\  /    A nd           | Version:  10
     \\/     M anipulation  |
\*---------------------------------------------------------------------------*/
FoamFile
{
    format      ascii;
    class       volScalarField;
    location    "46";
    object      h;
}
// * * * * * * * * * * * * * * * * * * * * * * * * * * * * * * * * * * * * * //

dimensions      [0 1 0 0 0 0 0];

internalField   nonuniform List<scalar> 
10000
(
-0.0033721
-0.00935924
-0.013464
-0.0154528
-0.016013
-0.0162148
-0.016696
-0.0171788
-0.0166631
-0.0143525
-0.01049
-0.0064527
-0.00380649
-0.00296963
-0.0028757
-0.0018406
0.000873028
0.00444493
0.00733766
0.0086446
0.00874384
0.00855615
0.0085985
0.00866247
0.00833297
0.00735879
0.00581734
0.00401969
0.00231446
0.00097268
-0.000272259
-0.00188651
-0.0037765
-0.00525428
-0.00614407
-0.00698845
-0.00817787
-0.00931926
-0.00991638
-0.010227
-0.0107976
-0.0115075
-0.0118416
-0.0118927
-0.0121286
-0.0125251
-0.0126679
-0.0125841
-0.0126471
-0.0128558
-0.0128558
-0.0126471
-0.0125842
-0.0126679
-0.0125251
-0.0121286
-0.0118928
-0.0118416
-0.0115075
-0.0107975
-0.0102269
-0.00991635
-0.0093192
-0.00817775
-0.0069883
-0.00614394
-0.00525414
-0.00377631
-0.00188629
-0.000272064
0.000972824
0.00231459
0.00401983
0.00581745
0.00735887
0.00833302
0.00866249
0.00859847
0.00855609
0.00874382
0.00864468
0.00733778
0.00444494
0.000872855
-0.00184085
-0.00287584
-0.00296958
-0.00380639
-0.0064528
-0.0104904
-0.0143533
-0.0166639
-0.0171795
-0.0166966
-0.0162154
-0.0160138
-0.0154536
-0.0134648
-0.00935986
-0.00337232
-0.00935924
-0.0259032
-0.0370084
-0.0420368
-0.0430667
-0.0432381
-0.0444457
-0.0459037
-0.0446861
-0.0384587
-0.0278995
-0.0169634
-0.0101395
-0.00859718
-0.00923064
-0.0071172
-2.38785e-05
0.00973355
0.017729
0.0213038
0.0215028
0.0209828
0.0212055
0.0215793
0.0209313
0.0184985
0.0144265
0.0096079
0.00506789
0.0015663
-0.00167313
-0.00598935
-0.0111049
-0.0150534
-0.0173442
-0.0195322
-0.022698
-0.025719
-0.0272146
-0.02793
-0.0293804
-0.0312141
-0.0320051
-0.0320379
-0.0325993
-0.0336034
-0.0339205
-0.0336462
-0.0337885
-0.0343349
-0.0343349
-0.0337885
-0.0336462
-0.0339205
-0.0336035
-0.0325993
-0.032038
-0.0320051
-0.0312141
-0.0293804
-0.0279299
-0.0272145
-0.0257188
-0.0226977
-0.0195318
-0.0173438
-0.0150531
-0.0111045
-0.0059889
-0.00167279
0.00156648
0.005068
0.009608
0.0144266
0.0184984
0.0209312
0.021579
0.0212052
0.0209824
0.0215025
0.0213038
0.0177292
0.00973347
-2.43735e-05
-0.00711782
-0.00923091
-0.00859692
-0.0101391
-0.0169636
-0.0279006
-0.0384606
-0.0446881
-0.0459055
-0.0444471
-0.0432396
-0.0430685
-0.042039
-0.0370106
-0.0259048
-0.00935986
-0.013464
-0.0370084
-0.0521015
-0.0578815
-0.0577862
-0.0568914
-0.0582833
-0.0607236
-0.0595923
-0.0511782
-0.0364618
-0.0215569
-0.0133581
-0.0135289
-0.0170847
-0.0161906
-0.00717423
0.00645256
0.0179161
0.0230307
0.0232356
0.0226039
0.0233806
0.0246965
0.0247028
0.0220907
0.0169277
0.0106274
0.0047781
0.00043719
-0.00359089
-0.00932416
-0.0162918
-0.021553
-0.024393
-0.0271742
-0.031399
-0.0353773
-0.0371405
-0.0378413
-0.0396171
-0.0419076
-0.0427104
-0.0425105
-0.0430984
-0.0442865
-0.0445421
-0.0440624
-0.0441901
-0.0448752
-0.0448752
-0.0441901
-0.0440624
-0.0445422
-0.0442865
-0.0430984
-0.0425105
-0.0427104
-0.0419075
-0.039617
-0.0378412
-0.0371403
-0.0353771
-0.0313986
-0.0271739
-0.0243928
-0.0215528
-0.0162916
-0.00932397
-0.00359093
0.00043684
0.00477758
0.0106269
0.0169269
0.0220897
0.0247018
0.0246953
0.0233793
0.0226027
0.0232347
0.0230302
0.017916
0.00645221
-0.00717505
-0.0161915
-0.017085
-0.0135283
-0.0133572
-0.0215567
-0.0364629
-0.0511803
-0.0595945
-0.0607254
-0.0582846
-0.0568927
-0.0577881
-0.0578841
-0.0521044
-0.0370107
-0.0134648
-0.0154528
-0.0420368
-0.0578815
-0.0620925
-0.0593219
-0.0563237
-0.0572182
-0.0604069
-0.0599903
-0.0511873
-0.0351607
-0.0195938
-0.0130156
-0.0172406
-0.0256986
-0.0282344
-0.0199233
-0.00500562
0.00819901
0.0143421
0.0148799
0.0147909
0.0168597
0.0200856
0.0220826
0.0209941
0.0166493
0.0108418
0.00555082
0.0018807
-0.00164212
-0.00741491
-0.0147562
-0.0201917
-0.022917
-0.0257692
-0.030294
-0.0344502
-0.036103
-0.0366815
-0.0384571
-0.0406798
-0.0412445
-0.0408352
-0.0413118
-0.0423316
-0.0423878
-0.0418134
-0.0418874
-0.0424904
-0.0424904
-0.0418874
-0.0418134
-0.0423878
-0.0423315
-0.0413117
-0.0408351
-0.0412443
-0.0406795
-0.0384568
-0.0366811
-0.0361027
-0.0344498
-0.0302936
-0.0257689
-0.0229169
-0.0201918
-0.0147564
-0.00741534
-0.00164293
0.00187943
0.00554927
0.0108401
0.0166474
0.0209919
0.0220803
0.0200833
0.0168574
0.0147887
0.0148781
0.014341
0.00819831
-0.00500643
-0.0199245
-0.0282356
-0.025699
-0.0172398
-0.0130143
-0.019593
-0.0351611
-0.0511888
-0.0599918
-0.0604077
-0.0572183
-0.0563238
-0.0593229
-0.0620945
-0.0578841
-0.042039
-0.0154536
-0.016013
-0.0430667
-0.0577862
-0.0593219
-0.0532857
-0.04767
-0.0473722
-0.0506145
-0.0507418
-0.0423486
-0.0267531
-0.0125487
-0.00904467
-0.0179665
-0.0316584
-0.0384957
-0.0326009
-0.0183158
-0.00461881
0.00245464
0.00402947
0.00535423
0.00945567
0.0153976
0.0205332
0.0224889
0.0207044
0.0171064
0.0139087
0.0120222
0.00981552
0.00487971
-0.00188677
-0.00695183
-0.00960525
-0.0127194
-0.0174951
-0.0217437
-0.0236282
-0.0246771
-0.0267759
-0.0289913
-0.0296141
-0.0295052
-0.0301424
-0.0309909
-0.0309918
-0.0306335
-0.030749
-0.03113
-0.03113
-0.030749
-0.0306333
-0.0309916
-0.0309906
-0.030142
-0.0295047
-0.0296135
-0.0289907
-0.0267753
-0.0246764
-0.0236276
-0.0217432
-0.0174946
-0.0127191
-0.00960523
-0.00695219
-0.00188748
0.00487867
0.00981399
0.0120201
0.0139062
0.0171036
0.0207014
0.0224857
0.02053
0.0153945
0.00945263
0.00535134
0.004027
0.0024529
-0.00462001
-0.018317
-0.0326023
-0.0384971
-0.031659
-0.0179658
-0.00904323
-0.0125476
-0.026753
-0.0423492
-0.0507422
-0.050614
-0.0473708
-0.0476686
-0.0532853
-0.0593229
-0.0577881
-0.0430685
-0.0160138
-0.0162148
-0.0432381
-0.0568914
-0.0563237
-0.04767
-0.0396126
-0.0374664
-0.0394496
-0.038771
-0.0300051
-0.014747
-0.00192083
-0.000845234
-0.0129826
-0.0301384
-0.0402339
-0.0369813
-0.0242732
-0.0108571
-0.00283177
0.000356486
0.00352872
0.00974577
0.0183572
0.0267288
0.0321015
0.0335465
0.0328808
0.0323481
0.0324485
0.0314944
0.0274789
0.0215007
0.0166634
0.0133841
0.00921239
0.00361715
-0.00125355
-0.00426112
-0.0068514
-0.0100809
-0.0128456
-0.0142365
-0.0152395
-0.0165949
-0.017581
-0.0178875
-0.0181428
-0.0184844
-0.0186202
-0.0186202
-0.0184843
-0.0181425
-0.0178871
-0.0175805
-0.0165943
-0.0152388
-0.0142357
-0.0128447
-0.01008
-0.00685044
-0.0042602
-0.00125285
0.0036176
0.00921261
0.013384
0.0166628
0.0214996
0.0274774
0.0314925
0.032446
0.0323453
0.0328777
0.0335434
0.0320983
0.0267257
0.0183543
0.00974305
0.00352616
0.000354251
-0.0028334
-0.0108582
-0.0242743
-0.0369828
-0.0402354
-0.0301393
-0.0129823
-0.000844042
-0.00191967
-0.0147466
-0.0300052
-0.0387707
-0.0394483
-0.0374641
-0.0396102
-0.0476686
-0.0563239
-0.0568927
-0.0432396
-0.0162154
-0.016696
-0.0444457
-0.0582833
-0.0572182
-0.0473722
-0.0374664
-0.0327902
-0.0317556
-0.0281038
-0.0170878
-0.000801769
0.0120185
0.0127492
0.000322006
-0.0171885
-0.0284163
-0.0273171
-0.0168326
-0.00463181
0.00378895
0.00834471
0.0128057
0.0200871
0.0299976
0.0402604
0.0480674
0.0522376
0.054201
0.0560097
0.0576433
0.0574291
0.0541081
0.048903
0.0440503
0.0394983
0.0335937
0.0266592
0.0206284
0.0156897
0.010639
0.00552575
0.00158082
-0.00129651
-0.00412555
-0.00673032
-0.00826813
-0.0092708
-0.0104457
-0.0111877
-0.0111581
-0.011158
-0.0111875
-0.0104453
-0.00927026
-0.00826748
-0.00672956
-0.0041246
-0.00129545
0.00158184
0.00552673
0.01064
0.0156906
0.0206289
0.0266594
0.0335936
0.0394979
0.0440493
0.0489014
0.0541063
0.057427
0.0576409
0.0560072
0.0541984
0.0522351
0.0480652
0.0402585
0.029996
0.0200858
0.0128045
0.00834362
0.00378824
-0.00463218
-0.016833
-0.0273179
-0.0284174
-0.0171893
0.000322049
0.01275
0.0120195
-0.000801192
-0.0170877
-0.0281034
-0.0317543
-0.032788
-0.0374641
-0.0473708
-0.0572183
-0.0582846
-0.0444471
-0.0166966
-0.0171788
-0.0459037
-0.0607236
-0.0604069
-0.0506145
-0.0394496
-0.0317556
-0.0263122
-0.0179234
-0.00313241
0.0152904
0.0292893
0.0315132
0.021395
0.00626445
-0.00426907
-0.00500005
0.00236712
0.0119073
0.019345
0.024062
0.0283272
0.0347333
0.0436765
0.053587
0.0620211
0.067708
0.071511
0.0750995
0.0778839
0.0782265
0.0758355
0.0719367
0.0675526
0.0620264
0.0547113
0.0467906
0.0398131
0.0329592
0.0253867
0.0183076
0.0129868
0.00835228
0.00348378
-0.000552014
-0.00291266
-0.00483408
-0.0069965
-0.0082093
-0.00815
-0.00814992
-0.00820904
-0.00699606
-0.00483346
-0.00291192
-0.000551179
0.00348476
0.00835331
0.0129877
0.0183084
0.0253874
0.0329597
0.039813
0.0467901
0.0547105
0.0620252
0.067551
0.0719346
0.0758332
0.0782243
0.0778818
0.0750975
0.0715092
0.0677067
0.0620202
0.0535867
0.0436767
0.0347337
0.0283277
0.0240624
0.0193456
0.0119081
0.00236799
-0.00499963
-0.00426919
0.00626418
0.0213952
0.0315141
0.0292904
0.0152912
-0.00313209
-0.0179231
-0.0263114
-0.0317543
-0.0394483
-0.050614
-0.0604077
-0.0607254
-0.0459055
-0.0171795
-0.0166631
-0.0446861
-0.0595923
-0.0599903
-0.0507418
-0.038771
-0.0281038
-0.0179234
-0.0044883
0.0138812
0.033689
0.0480481
0.0514692
0.0442227
0.0325421
0.0234951
0.0208597
0.0240857
0.0294809
0.0344972
0.0381475
0.0409428
0.0449152
0.0510045
0.0585163
0.065826
0.0718541
0.0768949
0.081997
0.0859921
0.0873649
0.0868761
0.0856175
0.0831525
0.0781819
0.0710638
0.0636921
0.057032
0.0494016
0.0403863
0.032196
0.025979
0.01996
0.0134826
0.00829924
0.00510769
0.00228595
-0.000679549
-0.0023082
-0.00236209
-0.00236197
-0.00230789
-0.000679054
0.00228662
0.00510847
0.00830007
0.0134835
0.0199608
0.0259796
0.0321962
0.0403862
0.0494012
0.057031
0.0636904
0.0710618
0.0781797
0.0831499
0.0856147
0.0868733
0.0873626
0.0859904
0.0819956
0.0768939
0.0718537
0.0658264
0.0585174
0.0510061
0.0449169
0.0409444
0.0381491
0.0344989
0.0294828
0.0240878
0.0208613
0.0234961
0.0325426
0.0442234
0.0514706
0.0480499
0.0336905
0.0138821
-0.00448797
-0.0179231
-0.0281034
-0.0387707
-0.0507422
-0.0599917
-0.0595945
-0.0446881
-0.0166639
-0.0143525
-0.0384587
-0.0511782
-0.0511873
-0.0423486
-0.0300051
-0.0170878
-0.00313241
0.0138812
0.0336454
0.0520984
0.0639948
0.0663172
0.0605766
0.0517054
0.0437797
0.0387836
0.0370973
0.0375608
0.0395634
0.0418898
0.0432998
0.0448572
0.0477875
0.0522973
0.0579513
0.064092
0.0705009
0.0774141
0.0831783
0.0865887
0.0893451
0.0923081
0.093533
0.0911834
0.0864474
0.0816568
0.077004
0.0702472
0.0614372
0.0534249
0.0470696
0.0403003
0.0329038
0.0270026
0.0230332
0.019376
0.0158333
0.0138523
0.0135378
0.013538
0.0138527
0.0158339
0.0193767
0.023034
0.0270034
0.0329044
0.0403007
0.0470697
0.0534245
0.0614363
0.0702457
0.0770019
0.0816542
0.0864445
0.0911804
0.0935299
0.092305
0.0893423
0.0865867
0.083177
0.0774133
0.0705006
0.0640924
0.0579524
0.052299
0.0477894
0.0448591
0.0433016
0.0418916
0.0395652
0.037563
0.0370999
0.038786
0.0437815
0.0517066
0.0605778
0.0663192
0.0639974
0.052101
0.0336472
0.0138821
-0.00313209
-0.0170877
-0.0300052
-0.0423492
-0.0511888
-0.0511803
-0.0384606
-0.0143533
-0.01049
-0.0278995
-0.0364618
-0.0351607
-0.0267531
-0.014747
-0.000801769
0.0152904
0.033689
0.0520984
0.0660876
0.0723477
0.0708124
0.06455
0.0572464
0.0500205
0.0428827
0.0367217
0.032853
0.0325426
0.0345275
0.0360704
0.0367787
0.0377969
0.0400702
0.0444064
0.0507965
0.0587079
0.0675104
0.0751934
0.0811072
0.0876678
0.0955175
0.101404
0.103154
0.102535
0.101958
0.100715
0.0963568
0.0894182
0.0828922
0.0771932
0.0703628
0.0627781
0.0565914
0.0519246
0.0474942
0.0435419
0.0412416
0.0405537
0.0405539
0.041242
0.0435425
0.0474949
0.0519253
0.056592
0.0627784
0.0703627
0.0771926
0.082891
0.0894164
0.0963545
0.100712
0.101955
0.102532
0.10315
0.101401
0.0955149
0.0876657
0.081106
0.075193
0.0675104
0.0587081
0.0507974
0.0444077
0.0400718
0.0377985
0.0367801
0.0360715
0.0345286
0.032544
0.0328549
0.036724
0.0428849
0.0500221
0.0572475
0.0645511
0.0708144
0.0723505
0.0660907
0.0521009
0.0336905
0.0152912
-0.000801224
-0.0147466
-0.026753
-0.0351612
-0.0364629
-0.0279006
-0.0104904
-0.0064527
-0.0169634
-0.0215569
-0.0195938
-0.0125487
-0.00192083
0.0120185
0.0292893
0.0480481
0.0639948
0.0723477
0.0717117
0.0651567
0.0574503
0.0512722
0.045102
0.0368542
0.0275136
0.0206185
0.0191386
0.02203
0.0255015
0.0273796
0.028288
0.0295428
0.0329781
0.0395175
0.0485314
0.0584808
0.067179
0.0747931
0.0842213
0.0959427
0.10584
0.111676
0.115592
0.119691
0.122341
0.121213
0.117312
0.113242
0.108846
0.10258
0.0954588
0.0893845
0.0841699
0.0790663
0.0748098
0.0722109
0.0711097
0.0711098
0.0722112
0.0748102
0.0790667
0.0841702
0.0893846
0.0954584
0.102579
0.108845
0.11324
0.117309
0.12121
0.122338
0.119688
0.115589
0.111673
0.105838
0.0959413
0.0842206
0.0747932
0.0671797
0.0584817
0.0485324
0.0395188
0.0329796
0.0295444
0.0282893
0.0273804
0.0255021
0.0220306
0.0191395
0.0206199
0.0275153
0.0368557
0.0451028
0.0512723
0.0574504
0.0651577
0.071714
0.0723505
0.0639974
0.0480498
0.0292903
0.0120194
-0.00191974
-0.0125476
-0.0195931
-0.0215568
-0.0169636
-0.0064528
-0.00380649
-0.0101395
-0.0133581
-0.0130156
-0.00904467
-0.000845234
0.0127492
0.0315132
0.0514692
0.0663172
0.0708124
0.0651567
0.0552582
0.0472994
0.0430561
0.0388253
0.0305719
0.0192411
0.0101743
0.00773561
0.011497
0.0172325
0.0210578
0.0227419
0.0235979
0.0261114
0.0322243
0.0413004
0.0509303
0.0590513
0.0667259
0.0770383
0.0903348
0.10227
0.110866
0.11849
0.12661
0.132766
0.135034
0.134815
0.13389
0.131438
0.126476
0.120559
0.115166
0.109828
0.104385
0.100031
0.0972531
0.095815
0.095815
0.0972531
0.100031
0.104385
0.109828
0.115165
0.120557
0.126474
0.131436
0.133887
0.134811
0.135031
0.132763
0.126607
0.118488
0.110864
0.102269
0.0903349
0.0770391
0.0667273
0.0590531
0.0509321
0.0413022
0.0322261
0.0261132
0.0235995
0.0227432
0.0210586
0.0172331
0.0114977
0.00773659
0.0101754
0.0192422
0.0305725
0.038825
0.0430551
0.0472983
0.0552579
0.0651577
0.0708144
0.0663192
0.0514705
0.031514
0.0127499
-0.000844129
-0.00904329
-0.0130143
-0.0133573
-0.0101391
-0.00380638
-0.00296963
-0.00859718
-0.0135289
-0.0172406
-0.0179665
-0.0129826
0.000322006
0.021395
0.0442227
0.0605766
0.06455
0.0574503
0.0472994
0.0412146
0.0401992
0.0389381
0.0317604
0.0193787
0.00823505
0.00373352
0.00658059
0.0128371
0.0174626
0.0192895
0.0192706
0.0201155
0.0246674
0.0324072
0.040207
0.0463546
0.0525973
0.061884
0.0744206
0.0862539
0.0959767
0.106058
0.117141
0.126141
0.13177
0.135696
0.138629
0.139038
0.13651
0.132924
0.129228
0.124699
0.119715
0.115809
0.113211
0.111655
0.111655
0.11321
0.115808
0.119714
0.124698
0.129226
0.132921
0.136507
0.139034
0.138626
0.135692
0.131767
0.126139
0.117139
0.106057
0.0959763
0.0862545
0.074422
0.0618858
0.0525993
0.0463567
0.040209
0.0324092
0.0246694
0.0201176
0.0192724
0.0192909
0.0174637
0.0128382
0.00658192
0.00373501
0.00823631
0.0193794
0.0317603
0.038937
0.0401974
0.0412128
0.0472983
0.0574504
0.0645511
0.0605778
0.0442234
0.0213951
0.000321976
-0.0129823
-0.0179658
-0.0172398
-0.0135283
-0.00859691
-0.00296956
-0.0028757
-0.00923064
-0.0170847
-0.0256986
-0.0316584
-0.0301384
-0.0171885
0.00626445
0.0325421
0.0517054
0.0572464
0.0512722
0.0430561
0.0401992
0.0430183
0.0450563
0.0394718
0.0265564
0.0131362
0.0052837
0.00507509
0.00945224
0.0130902
0.0140159
0.0125342
0.0112694
0.0136729
0.0193977
0.0247907
0.0285995
0.0329457
0.0403014
0.0505991
0.0607182
0.0701224
0.0812764
0.0939808
0.104821
0.113331
0.121335
0.128441
0.132449
0.133461
0.133412
0.132617
0.130097
0.126691
0.124088
0.122235
0.120859
0.120859
0.122234
0.124086
0.126689
0.130093
0.132613
0.133408
0.133456
0.132445
0.128437
0.121331
0.113328
0.104819
0.0939799
0.0812762
0.070123
0.0607196
0.0506011
0.0403035
0.0329477
0.0286014
0.0247927
0.0193997
0.0136749
0.0112715
0.0125361
0.0140174
0.0130915
0.00945375
0.00507671
0.0052852
0.0131371
0.0265563
0.0394709
0.0450547
0.0430162
0.0401973
0.0430551
0.0512723
0.0572475
0.0517066
0.0325426
0.00626415
-0.0171893
-0.0301393
-0.031659
-0.0256989
-0.0170849
-0.00923087
-0.00287581
-0.0018406
-0.0071172
-0.0161906
-0.0282344
-0.0384957
-0.0402339
-0.0284163
-0.00426907
0.0234951
0.0437797
0.0500205
0.045102
0.0388253
0.0389381
0.0450563
0.0500239
0.0465204
0.0342338
0.0195523
0.0085744
0.0044455
0.00541857
0.00680212
0.00607476
0.0028932
-0.000349741
-8.5552e-05
0.00348715
0.00659971
0.00857872
0.011619
0.0173168
0.0250634
0.0328225
0.0411294
0.0523077
0.065377
0.076953
0.087512
0.0989841
0.110007
0.11788
0.123181
0.127678
0.130893
0.13159
0.131014
0.130777
0.130367
0.129499
0.129499
0.130365
0.130774
0.13101
0.131585
0.130888
0.127673
0.123176
0.117875
0.110003
0.0989812
0.0875101
0.0769524
0.0653773
0.0523086
0.0411308
0.0328245
0.0250657
0.0173189
0.0116208
0.00858038
0.00660154
0.00348919
-8.35908e-05
-0.000347952
0.00289474
0.00607588
0.00680305
0.00541974
0.00444667
0.00857511
0.0195521
0.0342326
0.0465187
0.0500222
0.0450547
0.0389369
0.038825
0.0451028
0.0500221
0.0437815
0.0234961
-0.00426919
-0.0284174
-0.0402354
-0.0384971
-0.0282356
-0.0161915
-0.00711777
-0.00184082
0.000873028
-2.38785e-05
-0.00717423
-0.0199233
-0.0326009
-0.0369813
-0.0273171
-0.00500005
0.0208597
0.0387836
0.0428827
0.0368542
0.0305719
0.0317604
0.0394718
0.0465204
0.0458249
0.0362116
0.0228097
0.0109481
0.00414986
0.00213256
0.00147266
-0.00064145
-0.00499507
-0.00959704
-0.0112885
-0.0100126
-0.00908138
-0.0085003
-0.00618685
-0.00166888
0.00365271
0.00889167
0.0156616
0.0259686
0.0381588
0.0492201
0.0605902
0.0742916
0.0882189
0.0994507
0.109084
0.118555
0.126433
0.131237
0.134577
0.137719
0.139441
0.139402
0.139401
0.139439
0.137715
0.134572
0.131232
0.126427
0.118549
0.109079
0.0994468
0.0882161
0.0742899
0.0605897
0.0492208
0.0381601
0.0259702
0.0156636
0.00889401
0.00365505
-0.00166689
-0.00618519
-0.00849869
-0.0090795
-0.0100105
-0.0112867
-0.00959571
-0.00499426
-0.000641122
0.00147275
0.00213279
0.00415
0.0109475
0.0228083
0.0362093
0.0458226
0.0465187
0.0394709
0.0317602
0.0305724
0.0368557
0.0428849
0.038786
0.0208614
-0.00499963
-0.0273179
-0.0369828
-0.0326023
-0.0199245
-0.007175
-2.43284e-05
0.000872878
0.00444493
0.00973355
0.00645256
-0.00500562
-0.0183158
-0.0242732
-0.0168326
0.00236712
0.0240857
0.0370973
0.0367217
0.0275136
0.0192411
0.0193787
0.0265564
0.0342338
0.0362116
0.0306057
0.0209679
0.0111775
0.00426824
0.00114773
-0.000185466
-0.00257305
-0.00692475
-0.0118483
-0.0150542
-0.0161899
-0.0176842
-0.0187366
-0.0172458
-0.0138642
-0.0109513
-0.00834128
-0.00347143
0.00517624
0.015391
0.0247681
0.0356046
0.0499594
0.0652372
0.0786599
0.0919181
0.106016
0.118516
0.127776
0.135658
0.142818
0.147162
0.148244
0.148244
0.14716
0.142814
0.135653
0.12777
0.118511
0.106011
0.091914
0.0786571
0.0652357
0.0499589
0.0356052
0.0247696
0.015393
0.00517832
-0.00346916
-0.0083388
-0.0109489
-0.0138622
-0.017244
-0.0187347
-0.0176821
-0.0161878
-0.0150527
-0.0118477
-0.00692494
-0.00257369
-0.000186238
0.00114701
0.00426735
0.0111759
0.0209654
0.0306029
0.0362093
0.0342326
0.0265563
0.0193793
0.0192421
0.0275153
0.0367241
0.0370999
0.0240878
0.00236797
-0.016833
-0.0242744
-0.018317
-0.00500641
0.00645224
0.0097335
0.00444495
0.00733766
0.017729
0.0179161
0.00819901
-0.00461881
-0.0108571
-0.00463181
0.0119073
0.0294809
0.0375608
0.032853
0.0206185
0.0101743
0.00823505
0.0131362
0.0195523
0.0228097
0.0209679
0.0160389
0.00997169
0.00465617
0.00180184
0.000763777
-0.000993151
-0.00420908
-0.0083007
-0.0122369
-0.0156048
-0.0197376
-0.0228302
-0.0224874
-0.0203663
-0.0197697
-0.0196036
-0.0165754
-0.00980995
-0.00198069
0.00526784
0.0148431
0.0286741
0.0438997
0.0582813
0.0740863
0.0918255
0.10824
0.121712
0.134101
0.145248
0.152325
0.154758
0.154757
0.152323
0.145244
0.134096
0.121707
0.108235
0.0918219
0.0740836
0.0582799
0.0438995
0.0286748
0.0148445
0.00526977
-0.00197849
-0.00980769
-0.016573
-0.0196011
-0.0197673
-0.0203642
-0.0224856
-0.0228283
-0.0197357
-0.0156033
-0.0122364
-0.00830138
-0.00421055
-0.000994737
0.00076246
0.00180073
0.00465497
0.00996993
0.0160364
0.0209654
0.0228083
0.0195522
0.0131371
0.0082363
0.0101754
0.0206199
0.0328549
0.037563
0.0294828
0.0119081
-0.00463224
-0.0108583
-0.00462004
0.00819831
0.017916
0.0177292
0.0073378
0.0086446
0.0213038
0.0230307
0.0143421
0.00245464
-0.00283177
0.00378895
0.019345
0.0344972
0.0395634
0.0325426
0.0191386
0.00773561
0.00373352
0.0052837
0.0085744
0.0109481
0.0111775
0.00997169
0.00740774
0.00405037
0.00193568
0.00157557
0.00106615
2.7645e-05
-0.00192444
-0.00528834
-0.0100381
-0.0164381
-0.0216539
-0.0228788
-0.0224719
-0.0243524
-0.0265708
-0.0254105
-0.0207144
-0.0154457
-0.0103323
-0.00223589
0.0103394
0.0244755
0.0387986
0.0559174
0.0757905
0.0947945
0.111586
0.127619
0.141856
0.15123
0.155077
0.155076
0.151228
0.141854
0.127616
0.111583
0.0947922
0.0757889
0.0559165
0.0387985
0.0244763
0.0103407
-0.00223424
-0.0103304
-0.0154435
-0.0207121
-0.0254082
-0.0265685
-0.0243502
-0.02247
-0.0228773
-0.0216526
-0.0164371
-0.0100379
-0.00528935
-0.00192639
2.5324e-05
0.00106423
0.00157441
0.00193489
0.00404952
0.00740648
0.00996995
0.0111759
0.0109476
0.00857515
0.00528522
0.00373501
0.00773658
0.0191395
0.032544
0.0395652
0.0344989
0.0193456
0.00378819
-0.00283344
0.00245288
0.014341
0.0230303
0.0213039
0.0086447
0.00874384
0.0215028
0.0232356
0.0148799
0.00402947
0.000356486
0.00834471
0.024062
0.0381475
0.0418898
0.0345275
0.02203
0.011497
0.00658059
0.00507509
0.0044455
0.00414986
0.00426824
0.00465617
0.00405037
0.0017956
-0.000259914
-0.000616729
-0.000233978
0.00110801
0.00224025
0.00106597
-0.00333096
-0.0105156
-0.0169039
-0.0193948
-0.0206319
-0.0247048
-0.028938
-0.0295159
-0.0269731
-0.0242444
-0.0209777
-0.0142106
-0.00323118
0.00923427
0.0228212
0.0400359
0.0602265
0.0800284
0.0985857
0.11655
0.132139
0.142759
0.147765
0.147765
0.142758
0.132139
0.11655
0.0985857
0.0800287
0.0602273
0.0400369
0.0228224
0.00923573
-0.00322944
-0.0142089
-0.0209759
-0.0242424
-0.0269709
-0.0295137
-0.0289361
-0.0247033
-0.0206308
-0.0193942
-0.0169038
-0.010516
-0.00333229
0.00106367
0.00223755
0.00110567
-0.000235346
-0.000617041
-0.000259918
0.00179527
0.00404953
0.004655
0.00426738
0.00415003
0.00444669
0.00507671
0.00658191
0.0114977
0.0220306
0.0345286
0.0418916
0.0381491
0.0240624
0.0083436
0.000354229
0.004027
0.0148781
0.0232347
0.0215026
0.00874385
0.00855615
0.0209828
0.0226039
0.0147909
0.00535423
0.00352872
0.0128057
0.0283272
0.0409428
0.0432998
0.0360704
0.0255015
0.0172325
0.0128371
0.00945224
0.00541857
0.00213256
0.00114773
0.00180184
0.00193568
-0.000259914
-0.00349871
-0.00533865
-0.00548368
-0.00283986
0.00115671
0.00298817
0.000444574
-0.00575465
-0.0117406
-0.0144644
-0.0165973
-0.0219812
-0.0273892
-0.0291918
-0.0286036
-0.0281594
-0.0262941
-0.0205237
-0.0111607
-0.000496441
0.0120411
0.0283555
0.0471733
0.0658992
0.0842717
0.101963
0.116762
0.127157
0.132691
0.132692
0.127159
0.116764
0.101966
0.0842747
0.0659023
0.0471765
0.0283584
0.0120434
-0.000494372
-0.0111587
-0.0205218
-0.0262925
-0.0281577
-0.0286017
-0.0291903
-0.0273884
-0.0219809
-0.0165974
-0.0144651
-0.0117419
-0.0057564
0.000442242
0.00298542
0.00115428
-0.00284127
-0.00548383
-0.00533788
-0.00349798
-0.000259898
0.00193492
0.00180076
0.00114703
0.0021328
0.00541974
0.00945374
0.0128382
0.017233
0.025502
0.0360715
0.0433016
0.0409445
0.0283277
0.0128045
0.00352616
0.00535135
0.0147887
0.0226027
0.0209824
0.00855611
0.0085985
0.0212055
0.0233806
0.0168597
0.00945567
0.00974577
0.0200871
0.0347333
0.0449152
0.0448572
0.0367787
0.0273796
0.0210578
0.0174626
0.0130902
0.00680212
0.00147266
-0.000185466
0.000763777
0.00157557
-0.000616729
-0.00533865
-0.00953429
-0.0116578
-0.00952536
-0.00410699
0.000174525
-9.69845e-05
-0.00409561
-0.00820493
-0.00994316
-0.011946
-0.0173867
-0.0226803
-0.0247094
-0.0254485
-0.0267586
-0.0258208
-0.0207611
-0.0129385
-0.00407743
0.00712633
0.0216726
0.0377403
0.0536541
0.0697501
0.0849331
0.0969571
0.105571
0.110692
0.110693
0.105574
0.0969617
0.0849387
0.0697559
0.0536598
0.0377456
0.0216772
0.00712989
-0.00407464
-0.0129362
-0.0207593
-0.0258195
-0.0267576
-0.0254478
-0.0247094
-0.0226813
-0.0173881
-0.0119476
-0.00994507
-0.00820724
-0.00409809
-9.94138e-05
0.000172442
-0.00410817
-0.00952521
-0.0116566
-0.00953279
-0.00533786
-0.000617008
0.00157444
0.000762482
-0.000186244
0.00147273
0.00680303
0.0130915
0.0174636
0.0210586
0.0273804
0.03678
0.0448591
0.0449169
0.0347337
0.0200858
0.00974306
0.00945265
0.0168574
0.0233794
0.0212052
0.00859849
0.00866247
0.0215793
0.0246965
0.0200856
0.0153976
0.0183572
0.0299976
0.0436765
0.0510045
0.0477875
0.0377969
0.028288
0.0227419
0.0192895
0.0140159
0.00607476
-0.00064145
-0.00257305
-0.000993151
0.00106615
-0.000233978
-0.00548368
-0.0116578
-0.0162888
-0.0160395
-0.0108223
-0.00527406
-0.00355723
-0.00467633
-0.00575373
-0.00535239
-0.00602861
-0.00995817
-0.0134558
-0.014246
-0.0151221
-0.0172557
-0.0167394
-0.0122711
-0.00607333
0.000653817
0.00976082
0.0214345
0.03346
0.0448684
0.0565824
0.0673158
0.0750995
0.0806099
0.0842858
0.0842873
0.0806139
0.0751053
0.067323
0.0565903
0.0448763
0.0334672
0.0214407
0.00976585
0.000657621
-0.00607064
-0.0122694
-0.0167387
-0.0172559
-0.0151229
-0.0142478
-0.0134584
-0.00996104
-0.00603119
-0.00535482
-0.00575621
-0.00467864
-0.00355897
-0.00527491
-0.0108221
-0.0160382
-0.0162871
-0.0116565
-0.0054838
-0.000235318
0.00106426
-0.000994734
-0.00257371
-0.000641155
0.00607586
0.0140174
0.0192909
0.0227431
0.0282893
0.0377985
0.0477894
0.0510061
0.0436767
0.0299961
0.0183543
0.0153945
0.0200833
0.0246954
0.021579
0.00866251
0.00833297
0.0209313
0.0247028
0.0220826
0.0205332
0.0267288
0.0402604
0.053587
0.0585163
0.0522973
0.0400702
0.0295428
0.0235979
0.0192706
0.0125342
0.0028932
-0.00499507
-0.00692475
-0.00420908
2.7645e-05
0.00110801
-0.00283986
-0.00952536
-0.0160395
-0.0181285
-0.0145426
-0.00951333
-0.00720531
-0.00617686
-0.00447356
-0.00190983
-0.00088942
-0.00247975
-0.00309737
-0.00139113
-0.000965619
-0.0026476
-0.00185509
0.0022826
0.00687354
0.0110315
0.017063
0.0247436
0.0316357
0.0371548
0.0428689
0.047956
0.0508405
0.0525423
0.0540528
0.0540545
0.0525466
0.0508466
0.0479637
0.042878
0.0371642
0.0316443
0.0247512
0.0170694
0.0110363
0.00687647
0.00228383
-0.00185528
-0.00264907
-0.00096818
-0.00139452
-0.00310111
-0.00248319
-0.000892183
-0.00191206
-0.00447549
-0.00617839
-0.00720605
-0.00951299
-0.0145414
-0.018127
-0.0160382
-0.0095252
-0.00284124
0.00110569
2.53407e-05
-0.00421055
-0.00692496
-0.00499428
0.00289473
0.0125361
0.0192724
0.0235995
0.0295444
0.0400718
0.052299
0.0585174
0.0535867
0.0402585
0.0267257
0.02053
0.0220803
0.0247018
0.0209312
0.00833304
0.00735879
0.0184985
0.0220907
0.0209941
0.0224889
0.0321015
0.0480674
0.0620211
0.065826
0.0579513
0.0444064
0.0329781
0.0261114
0.0201155
0.0112694
-0.000349741
-0.00959704
-0.0118483
-0.0083007
-0.00192444
0.00224025
0.00115671
-0.00410699
-0.0108223
-0.0145426
-0.0132029
-0.0101431
-0.00880192
-0.00706786
-0.00378305
4.29332e-05
0.00215616
0.00255772
0.00475929
0.00940495
0.0121048
0.0119126
0.0136159
0.0177506
0.0207911
0.0219577
0.0240161
0.0267132
0.0275378
0.0262147
0.0250726
0.0240895
0.0220483
0.0199236
0.0191386
0.0191401
0.0199274
0.0220539
0.0240968
0.0250817
0.0262245
0.0275472
0.0267215
0.0240231
0.0219629
0.020794
0.0177512
0.0136148
0.0119101
0.0121013
0.00940083
0.00475545
0.00255471
0.00215402
4.13881e-05
-0.00378417
-0.0070685
-0.00880182
-0.010142
-0.0132015
-0.0145414
-0.0108221
-0.00410816
0.00115431
0.00223757
-0.00192637
-0.00830138
-0.0118477
-0.00959572
-0.000347954
0.0112715
0.0201176
0.0261132
0.0329796
0.0444077
0.0579524
0.0658264
0.0620203
0.0480652
0.0320983
0.0224857
0.0209919
0.0220897
0.0184985
0.00735889
0.00581734
0.0144265
0.0169277
0.0166493
0.0207044
0.0335465
0.0522376
0.067708
0.0718541
0.064092
0.0507965
0.0395175
0.0322243
0.0246674
0.0136729
-8.5552e-05
-0.0112885
-0.0150542
-0.0122369
-0.00528834
0.00106597
0.00298817
0.000174525
-0.00527406
-0.00951333
-0.0101431
-0.00945048
-0.00983585
-0.00842382
-0.00451363
-0.00017004
0.00237602
0.00415544
0.00872756
0.016247
0.0216581
0.0237383
0.027101
0.0317896
0.0335977
0.0318929
0.029883
0.0272974
0.0217053
0.0134629
0.00568126
-0.00107925
-0.00769684
-0.013113
-0.0157085
-0.0157075
-0.0131101
-0.00769218
-0.00107287
0.00568916
0.0134717
0.0217141
0.0273054
0.0298897
0.0318977
0.0336003
0.03179
0.0270996
0.0237356
0.0216547
0.0162434
0.00872448
0.00415332
0.00237468
-0.000171017
-0.00451432
-0.00842406
-0.00983548
-0.0094495
-0.010142
-0.00951301
-0.00527493
0.000172441
0.00298543
0.00106367
-0.00528935
-0.0122364
-0.0150528
-0.0112867
-8.35935e-05
0.0136749
0.0246694
0.0322261
0.0395187
0.0507974
0.0640924
0.0718538
0.0677067
0.0522352
0.0335434
0.0207014
0.0166473
0.0169269
0.0144266
0.00581747
0.00401969
0.0096079
0.0106274
0.0108418
0.0171064
0.0328808
0.054201
0.071511
0.0768949
0.0705009
0.0587079
0.0485314
0.0413004
0.0324072
0.0193977
0.00348715
-0.0100126
-0.0161899
-0.0156048
-0.0100381
-0.00333096
0.000444574
-9.69845e-05
-0.00355723
-0.00720531
-0.00880192
-0.00983585
-0.0117041
-0.0106881
-0.00622431
-0.00136721
0.00158673
0.00465699
0.0113255
0.0212804
0.0292099
0.0339003
0.0394308
0.0449964
0.0458737
0.0419386
0.0366545
0.0293664
0.0179279
0.00381552
-0.00934974
-0.0210612
-0.0317367
-0.0396695
-0.0432914
-0.0432909
-0.0396676
-0.0317331
-0.0210562
-0.0093439
0.00382191
0.0179347
0.0293728
0.0366598
0.0419425
0.0458763
0.0449973
0.0394301
0.0338987
0.0292078
0.0212783
0.0113236
0.00465557
0.00158566
-0.00136823
-0.0062253
-0.0106887
-0.0117042
-0.00983549
-0.00880183
-0.00720606
-0.00355899
-9.94087e-05
0.000442255
-0.00333228
-0.0100379
-0.0156033
-0.0161878
-0.0100105
0.00348918
0.0193997
0.0324092
0.0413021
0.0485323
0.0587081
0.0705006
0.0768939
0.0715093
0.0541985
0.0328777
0.0171036
0.0108401
0.0106269