/*--------------------------------*- C++ -*----------------------------------*\
  =========                 |
  \\      /  F ield         | OpenFOAM: The Open Source CFD Toolbox
   \\    /   O peration     | Website:  https://openfoam.org
    \\  /    A nd           | Version:  10
     \\/     M anipulation  |
\*---------------------------------------------------------------------------*/
FoamFile
{
    format      ascii;
    class       volScalarField;
    location    "52";
    object      h;
}
// * * * * * * * * * * * * * * * * * * * * * * * * * * * * * * * * * * * * * //

dimensions      [0 1 0 0 0 0 0];

internalField   nonuniform List<scalar> 
10000
(
-0.00111845
-0.00293772
-0.00372479
-0.00347167
-0.00282757
-0.00270523
-0.00357321
-0.00491693
-0.00551006
-0.00439006
-0.00167933
0.00162554
0.00450992
0.0064851
0.00745249
0.00747781
0.00694997
0.00631835
0.0054895
0.00377186
0.000782632
-0.00274605
-0.005682
-0.00754105
-0.00826825
-0.00760365
-0.0053692
-0.00203306
0.00155722
0.00506791
0.00853907
0.0115973
0.0138283
0.0153061
0.0161414
0.0161749
0.0153129
0.0136493
0.0113023
0.00823875
0.00444125
0.000101311
-0.00459994
-0.00960825
-0.0146966
-0.0195053
-0.0238045
-0.0273775
-0.0299093
-0.0311908
-0.0311911
-0.0299101
-0.0273787
-0.0238059
-0.0195065
-0.0146975
-0.00960873
-0.00459994
0.000101738
0.00444196
0.00823955
0.011303
0.0136498
0.015313
0.0161746
0.0161408
0.0153053
0.0138276
0.0115967
0.00853871
0.00506787
0.0015575
-0.00203255
-0.0053686
-0.00760304
-0.00826769
-0.00754065
-0.00568183
-0.00274607
0.0007825
0.00377163
0.00548913
0.00631796
0.00694969
0.00747772
0.00745257
0.00648531
0.00451021
0.00162581
-0.0016792
-0.0043901
-0.00551018
-0.00491705
-0.0035733
-0.00270537
-0.00282783
-0.00347202
-0.00372518
-0.00293803
-0.00111858
-0.00293772
-0.00758775
-0.00922794
-0.00788107
-0.00551382
-0.00486307
-0.00733423
-0.011435
-0.0135884
-0.0109788
-0.00394045
0.00466491
0.011941
0.016549
0.018326
0.0176209
0.0156935
0.0139042
0.0119665
0.00782112
0.000278978
-0.00868104
-0.0159303
-0.0201812
-0.0213671
-0.0188232
-0.012109
-0.00257258
0.00742872
0.0170271
0.0264263
0.0346801
0.0406932
0.0447092
0.0470313
0.0471624
0.0447773
0.0400751
0.0333254
0.0244141
0.0133112
0.000586992
-0.0131914
-0.0278053
-0.04257
-0.0564465
-0.0687772
-0.0789697
-0.0861645
-0.089797
-0.0897978
-0.0861666
-0.0789728
-0.0687806
-0.0564498
-0.0425725
-0.0278068
-0.0131916
0.000587842
0.0133128
0.024416
0.0333271
0.0400762
0.0447777
0.0471619
0.0470301
0.0447076
0.0406916
0.0346789
0.0264256
0.0170271
0.00742942
-0.0025714
-0.0121076
-0.0188218
-0.0213659
-0.0201804
-0.0159299
-0.00868102
0.000278807
0.00782072
0.0119658
0.0139033
0.0156928
0.0176207
0.0183262
0.0165494
0.0119417
0.00466544
-0.00394034
-0.0109791
-0.0135889
-0.0114353
-0.0073344
-0.00486332
-0.0055144
-0.00788198
-0.00922895
-0.00758855
-0.00293804
-0.00372479
-0.00922794
-0.0100022
-0.00621957
-0.00119129
0.00057125
-0.00322773
-0.0102315
-0.0147712
-0.0123686
-0.00348755
0.00748042
0.0161118
0.0204763
0.0206138
0.0174751
0.0133625
0.0105399
0.00852309
0.00398545
-0.00508651
-0.015957
-0.0241362
-0.0278918
-0.0273414
-0.0216813
-0.010454
0.00422783
0.0189236
0.0325077
0.0454911
0.0567495
0.0648715
0.0703282
0.0735688
0.0737464
0.0702383
0.0631766
0.0528
0.0388897
0.0214534
0.00139862
-0.0202967
-0.0431366
-0.0660015
-0.0873014
-0.106038
-0.121385
-0.132151
-0.137563
-0.137564
-0.132153
-0.121389
-0.106042
-0.0873057
-0.0660051
-0.043139
-0.0202977
0.00139894
0.0214548
0.0388916
0.052802
0.0631782
0.0702393
0.0737466
0.0735684
0.0703274
0.0648706
0.0567488
0.0454907
0.0325079
0.0189242
0.00422873
-0.0104531
-0.0216805
-0.0273407
-0.0278912
-0.0241359
-0.0159569
-0.00508636
0.00398545
0.00852261
0.010539
0.0133617
0.0174747
0.0206138
0.0204766
0.0161123
0.00748074
-0.00348787
-0.0123695
-0.0147722
-0.010232
-0.00322769
0.000571324
-0.00119169
-0.00622054
-0.0100034
-0.00922895
-0.00372519
-0.00347167
-0.00788107
-0.00621957
0.00106587
0.009366
0.0125766
0.00767223
-0.00222621
-0.00970285
-0.00889831
-0.000312066
0.0105482
0.0181093
0.0200288
0.0167035
0.00991961
0.00308161
-0.000771512
-0.00234108
-0.00596148
-0.0142934
-0.0242894
-0.0307506
-0.0317609
-0.0276818
-0.017834
-0.00208811
0.0167452
0.0345804
0.0502049
0.0644066
0.0762443
0.0844098
0.0896679
0.0926036
0.0921343
0.0874126
0.0784182
0.0652149
0.0474983
0.0253683
-5.58883e-05
-0.0274607
-0.0560263
-0.0843181
-0.110424
-0.133133
-0.151545
-0.164374
-0.170794
-0.170795
-0.164376
-0.151548
-0.133137
-0.110428
-0.0843221
-0.0560296
-0.027463
-5.69652e-05
0.0253683
0.0474993
0.0652166
0.0784202
0.0874147
0.0921362
0.0926053
0.0896692
0.0844107
0.076245
0.064407
0.050205
0.0345803
0.0167449
-0.00208878
-0.0178348
-0.0276825
-0.0317614
-0.0307509
-0.0242893
-0.0142929
-0.00596088
-0.00234098
-0.000771993
0.00308092
0.00991909
0.0167033
0.0200289
0.0181096
0.0105482
-0.000312797
-0.00889966
-0.00970403
-0.00222644
0.00767295
0.0125775
0.00936638
0.00106541
-0.00622054
-0.00788199
-0.00347204
-0.00282757
-0.00551382
-0.00119129
0.009366
0.0204487
0.0247225
0.0187269
0.00628764
-0.00382279
-0.00470851
0.00317679
0.0135944
0.0200906
0.0198652
0.0135362
0.00369266
-0.00533643
-0.010045
-0.0114096
-0.0143595
-0.0217911
-0.0305505
-0.0351404
-0.0334167
-0.0257336
-0.0116593
0.00826698
0.0305221
0.0506675
0.06732
0.081215
0.0917264
0.0979558
0.100985
0.101579
0.0987263
0.0916554
0.0803118
0.0645907
0.0442072
0.0194016
-0.00870884
-0.0387045
-0.0695465
-0.099735
-0.127357
-0.151151
-0.17027
-0.183523
-0.190136
-0.190136
-0.183525
-0.170272
-0.151154
-0.127361
-0.0997391
-0.0695505
-0.038708
-0.00871156
0.0194
0.0442069
0.0645917
0.080314
0.0916586
0.0987301
0.101583
0.100989
0.0979588
0.0917286
0.081216
0.0673199
0.0506665
0.0305202
0.00826449
-0.011662
-0.0257361
-0.0334186
-0.0351415
-0.0305507
-0.0217904
-0.0143586
-0.011409
-0.0100452
-0.00533705
0.00369205
0.0135359
0.0198653
0.0200909
0.0135944
0.00317602
-0.00470984
-0.00382376
0.00628797
0.0187286
0.0247245
0.0204502
0.00936639
-0.00119169
-0.00551441
-0.00282784
-0.00270523
-0.00486307
0.00057125
0.0125766
0.0247225
0.0289771
0.0218129
0.00767266
-0.00377757
-0.00503056
0.00353934
0.0152917
0.0230592
0.0233685
0.0166998
0.00618368
-0.00330653
-0.00823247
-0.00993072
-0.0134429
-0.0213563
-0.0304024
-0.0349828
-0.0324759
-0.0227532
-0.00557208
0.0176503
0.0426539
0.0647967
0.0822674
0.095222
0.103219
0.105903
0.104644
0.100457
0.0927959
0.081402
0.0664792
0.047926
0.0256543
8.58855e-05
-0.0278968
-0.0570863
-0.0864514
-0.114751
-0.140431
-0.162366
-0.179859
-0.191955
-0.197985
-0.197986
-0.191956
-0.179861
-0.162368
-0.140435
-0.114755
-0.0864559
-0.0570907
-0.0279006
8.31555e-05
0.0256532
0.0479266
0.0664816
0.0814059
0.0928008
0.100463
0.10465
0.105907
0.103222
0.0952234
0.0822672
0.0647951
0.0426512
0.0176468
-0.0055759
-0.0227567
-0.0324786
-0.0349845
-0.0304029
-0.0213557
-0.0134419
-0.00992996
-0.00823247
-0.00330708
0.00618314
0.0166996
0.0233688
0.0230598
0.0152919
0.00353877
-0.00503174
-0.00377837
0.00767328
0.0218151
0.0289798
0.0247246
0.0125775
0.000571323
-0.00486333
-0.00270539
-0.00357321
-0.00733423
-0.00322773
0.00767223
0.0187269
0.0218129
0.0136444
-0.000933383
-0.0119436
-0.0117733
-0.00070854
0.0145197
0.0262009
0.0300016
0.0259078
0.0173139
0.00927847
0.00499023
0.00269713
-0.00231561
-0.0118722
-0.0225841
-0.0289521
-0.027681
-0.0177021
0.00115456
0.0265234
0.0534502
0.0772297
0.0954287
0.107171
0.11199
0.110107
0.103103
0.0922536
0.0778036
0.060375
0.0407166
0.0189379
-0.00468479
-0.0295117
-0.0550376
-0.0805362
-0.105209
-0.128342
-0.149042
-0.166512
-0.180305
-0.18982
-0.194567
-0.194567
-0.189821
-0.180307
-0.166514
-0.149045
-0.128346
-0.105213
-0.0805406
-0.0550415
-0.0295146
-0.00468624
0.0189382
0.0407186
0.0603786
0.0778083
0.0922589
0.103108
0.110111
0.111994
0.107173
0.095429
0.0772287
0.053448
0.0265204
0.00115101
-0.0177056
-0.0276838
-0.0289539
-0.0225848
-0.0118719
-0.00231472
0.00269791
0.00499035
0.00927807
0.0173136
0.0259081
0.0300024
0.0262019
0.0145202
-0.000709065
-0.0117747
-0.0119447
-0.000933274
0.0136459
0.0218151
0.0187286
0.00767296
-0.00322769
-0.00733442
-0.00357332
-0.00491693
-0.011435
-0.0102315
-0.00222621
0.00628764
0.00767266
-0.000933383
-0.0146473
-0.0238527
-0.0213331
-0.00723768
0.0119725
0.0283245
0.0366109
0.0361338
0.0304146
0.0245151
0.0211002
0.0180782
0.0114221
0.00031688
-0.0118648
-0.0200688
-0.0204087
-0.0107092
0.00913515
0.035832
0.0638713
0.0886727
0.107218
0.117474
0.118872
0.112237
0.0992969
0.0815277
0.0600828
0.0365498
0.0122987
-0.0122527
-0.036408
-0.059302
-0.0808038
-0.100764
-0.118717
-0.134571
-0.148238
-0.159407
-0.167975
-0.173817
-0.176726
-0.176726
-0.173818
-0.167977
-0.159409
-0.148241
-0.134575
-0.118721
-0.100768
-0.0808068
-0.0593042
-0.0364092
-0.0122527
0.0122999
0.0365521
0.0600861
0.0815316
0.099301
0.112241
0.118875
0.117476
0.107219
0.0886734
0.0638709
0.0358306
0.00913279
-0.010712
-0.0204112
-0.0200707
-0.0118659
0.000316738
0.0114226
0.0180788
0.0211004
0.0245147
0.0304144
0.0361343
0.0366119
0.0283256
0.0119729
-0.00723844
-0.0213348
-0.0238546
-0.0146483
-0.00093327
0.00767329
0.00628799
-0.00222643
-0.010232
-0.0114354
-0.00491707
-0.00551006
-0.0135884
-0.0147712
-0.00970285
-0.00382279
-0.00377757
-0.0119436
-0.0238527
-0.0309013
-0.0266571
-0.0109904
0.0103592
0.0295642
0.0407249
0.042472
0.0384389
0.0336646
0.0303239
0.0261973
0.0182205
0.00665348
-0.00537799
-0.0137165
-0.0142662
-0.0039619
0.0170993
0.0447639
0.073149
0.0979945
0.115969
0.124139
0.121964
0.110975
0.0930549
0.0698141
0.0431861
0.0154777
-0.011515
-0.0371424
-0.0604128
-0.0803036
-0.0969419
-0.110668
-0.121306
-0.129282
-0.135269
-0.139498
-0.142259
-0.143969
-0.144794
-0.144794
-0.143971
-0.142261
-0.139501
-0.135271
-0.129284
-0.121308
-0.11067
-0.0969435
-0.0803048
-0.0604137
-0.0371429
-0.011515
0.0154783
0.0431874
0.0698163
0.0930578
0.110979
0.121968
0.124143
0.115973
0.0979973
0.0731507
0.0447643
0.0170983
-0.00396389
-0.0142684
-0.0137185
-0.00537952
0.00665269
0.0182204
0.0261974
0.0303237
0.033664
0.0384385
0.0424723
0.0407258
0.0295651
0.0103593
-0.0109915
-0.0266592
-0.0309036
-0.0238546
-0.0119447
-0.00377836
-0.00382374
-0.00970402
-0.0147722
-0.0135889
-0.0055102
-0.00439006
-0.0109788
-0.0123686
-0.00889831
-0.00470851
-0.00503056
-0.0117733
-0.0213331
-0.0266571
-0.0222925
-0.00756654
0.0129987
0.032158
0.0435605
0.0452203
0.0408135
0.0353534
0.0306668
0.024694
0.0155164
0.00437895
-0.00607195
-0.0129215
-0.0122769
-0.000574712
0.0217079
0.049664
0.0772302
0.100593
0.116451
0.121457
0.115383
0.10058
0.0791367
0.0527607
0.0239172
-0.00479796
-0.0315425
-0.0556511
-0.0761065
-0.0918895
-0.103256
-0.110871
-0.114752
-0.115629
-0.114738
-0.112774
-0.110346
-0.108349
-0.107304
-0.107304
-0.10835
-0.110347
-0.112775
-0.114739
-0.11563
-0.114753
-0.110871
-0.103257
-0.0918904
-0.0761076
-0.0556524
-0.0315439
-0.004799
0.0239168
0.0527614
0.0791387
0.100583
0.115388
0.121462
0.116456
0.100598
0.0772338
0.049666
0.0217081
-0.000576013
-0.012279
-0.0129237
-0.00607391
0.00437751
0.0155156
0.0246935
0.030666
0.0353522
0.0408125
0.0452199
0.0435608
0.0321582
0.0129983
-0.00756775
-0.0222943
-0.0266592
-0.0213348
-0.0117747
-0.00503174
-0.00470983
-0.00889965
-0.0123695
-0.0109792
-0.0043901
-0.00167933
-0.00394045
-0.00348755
-0.000312066
0.00317679
0.00353934
-0.00070854
-0.00723768
-0.0109904
-0.00756654
0.00449658
0.0222934
0.0395036
0.0495068
0.0497038
0.0435933
0.0360463
0.0286579
0.019803
0.00880971
-0.00224557
-0.0112883
-0.0167052
-0.01506
-0.00267641
0.0195247
0.0461346
0.0711585
0.0912334
0.1033
0.104078
0.0938747
0.0758311
0.0522796
0.0250556
-0.00308725
-0.0296906
-0.0532423
-0.0732571
-0.0889868
-0.0996503
-0.105593
-0.107671
-0.106051
-0.10156
-0.095717
-0.0894799
-0.0835754
-0.0791364
-0.076887
-0.0768868
-0.079136
-0.0835747
-0.089479
-0.0957162
-0.101559
-0.10605
-0.107671
-0.105593
-0.0996515
-0.0889886
-0.0732594
-0.0532449
-0.0296929
-0.00308885
0.0250552
0.0522807
0.075834
0.0938791
0.104084
0.103305
0.0912389
0.071163
0.0461375
0.0195258
-0.00267691
-0.0150615
-0.0167072
-0.0112902
-0.00224726
0.00880846
0.0198019
0.0286565
0.0360446
0.0435917
0.0497029
0.0495064
0.0395032
0.0222927
0.00449551
-0.00756775
-0.0109915
-0.00723845
-0.00070907
0.00353877
0.00317603
-0.000312794
-0.00348787
-0.00394034
-0.00167919
0.00162554
0.00466491
0.00748042
0.0105482
0.0135944
0.0152917
0.0145197
0.0119725
0.0103592
0.0129987
0.0222934
0.0371808
0.0524369
0.0612402
0.0603129
0.0526111
0.0426459
0.0318722
0.0193389
0.00563486
-0.00656588
-0.0157571
-0.0214277
-0.0206196
-0.00977239
0.0098966
0.0328935
0.0536035
0.0690233
0.0763517
0.0726863
0.0588637
0.0385708
0.0143037
-0.011928
-0.0372593
-0.0596111
-0.0780005
-0.0921892
-0.101905
-0.106852
-0.107523
-0.104917
-0.0993677
-0.0916643
-0.0833117
-0.075263
-0.0680941
-0.0628657
-0.0602842
-0.0602836
-0.0628642
-0.0680919
-0.0752604
-0.0833092
-0.0916622
-0.0993665
-0.104917
-0.107524
-0.106854
-0.101908
-0.0921926
-0.078004
-0.0596143
-0.0372618
-0.0119294
0.0143038
0.0385724
0.0588669
0.0726907
0.0763569
0.0690285
0.0536081
0.032897
0.00989868
-0.00977173
-0.02062
-0.0214287
-0.0157583
-0.00656713
0.00563376
0.0193378
0.0318708
0.0426441
0.0526095
0.0603117
0.0612395
0.0524363
0.03718
0.0222927
0.0129983
0.0103593
0.0119729
0.0145202
0.015292
0.0135944
0.0105482
0.00748074
0.00466545
0.00162582
0.00450992
0.011941
0.0161118
0.0181093
0.0200906
0.0230592
0.0262009
0.0283245
0.0295642
0.032158
0.0395036
0.0524369
0.0668659
0.075791
0.0751741
0.067031
0.0552775
0.0413246
0.0251059
0.00843101
-0.00575363
-0.0165117
-0.024114
-0.0259634
-0.0187157
-0.00365337
0.0141303
0.0297688
0.0405183
0.0436787
0.0368243
0.0211245
0.000361367
-0.0230297
-0.0468787
-0.0682784
-0.0855416
-0.0982126
-0.10623
-0.109833
-0.109374
-0.105589
-0.0995993
-0.0919383
-0.0832548
-0.0747722
-0.06719
-0.0607248
-0.0561354
-0.0539565
-0.0539559
-0.0561335
-0.0607219
-0.0671865
-0.0747688
-0.083252
-0.0919366
-0.0995989
-0.10559
-0.109376
-0.109836
-0.106234
-0.0982166
-0.0855453
-0.0682815
-0.0468811
-0.023031
0.000361301
0.0211257
0.0368268
0.0436823
0.0405225
0.0297731
0.0141343
-0.0036502
-0.0187136
-0.0259623
-0.0241136
-0.0165117
-0.00575394
0.00843052
0.0251052
0.0413237
0.0552763
0.0670299
0.0751734
0.0757905
0.0668654
0.0524363
0.0395032
0.0321582
0.0295651
0.0283256
0.0262019
0.0230598
0.0200909
0.0181096
0.0161123
0.0119417
0.00451023
0.0064851
0.016549
0.0204763
0.0200288
0.0198652
0.0233685
0.0300016
0.0366109
0.0407249
0.0435605
0.0495068
0.0612402
0.075791
0.0860567
0.0872277
0.0800796
0.0677186
0.0515951
0.0326908
0.0139314
-0.00182854
-0.0142463
-0.0240606
-0.0289505
-0.0258926
-0.0160569
-0.00367709
0.00748913
0.014876
0.0156872
0.00795347
-0.00712012
-0.0261618
-0.0470454
-0.0675085
-0.0846427
-0.0970692
-0.104739
-0.107608
-0.106295
-0.101824
-0.0952009
-0.0875965
-0.0797065
-0.0719616
-0.0651176
-0.059489
-0.0548812
-0.0516951
-0.0502803
-0.0502798
-0.0516935
-0.0548787
-0.059486
-0.0651143
-0.0719587
-0.0797044
-0.0875956
-0.0952013
-0.101826
-0.106297
-0.107612
-0.104743
-0.097073
-0.0846463
-0.0675117
-0.0470479
-0.0261635
-0.00712081
0.0079541
0.0156893
0.0148792
0.00749313
-0.0036727
-0.0160526
-0.0258889
-0.0289477
-0.0240585
-0.0142448
-0.00182766
0.0139317
0.0326908
0.0515948
0.0677182
0.0800792
0.0872274
0.0860565
0.0757905
0.0612395
0.0495064
0.0435608
0.0407258
0.0366119
0.0300024
0.0233688
0.0198653
0.0200289
0.0204766
0.0165494
0.00648532
0.00745249
0.018326
0.0206138
0.0167035
0.0135362
0.0166998
0.0259078
0.0361338
0.042472
0.0452203
0.0497038
0.0603129
0.0751741
0.0872277
0.0909411
0.0856694
0.0735473
0.0561765
0.0357578
0.0162096
-3.42345e-05
-0.0133095
-0.0245997
-0.0318007
-0.0322705
-0.0269759
-0.0190058
-0.0108089
-0.00485661
-0.00418336
-0.0103649
-0.0223835
-0.0376239
-0.054444
-0.0706472
-0.0834164
-0.0916097
-0.0954675
-0.0948493
-0.0905384
-0.0840645
-0.0765553
-0.0690658
-0.0623577
-0.0566213
-0.0521201
-0.0488346
-0.0462714
-0.0445469
-0.0438875
-0.0438872
-0.044546
-0.04627
-0.0488327
-0.0521178
-0.056619
-0.0623556
-0.0690642
-0.0765545
-0.0840647
-0.0905397
-0.0948515
-0.0954705
-0.0916133
-0.0834202
-0.0706511
-0.0544476
-0.0376269
-0.0223855
-0.0103656
-0.00418253
-0.00485431
-0.0108054
-0.0190013
-0.0269709
-0.0322657
-0.0317964
-0.024596
-0.0133064
-3.19755e-05
0.016211
0.0357585
0.056177
0.0735475
0.0856696
0.0909411
0.0872274
0.0751734
0.0603117
0.0497029
0.0452199
0.0424723
0.0361343
0.0259081
0.0166996
0.0135358
0.0167033
0.0206138
0.0183262
0.00745258
0.00747781
0.0176209
0.0174751
0.00991961
0.00369266
0.00618368
0.0173139
0.0304146
0.0384389
0.0408135
0.0435933
0.0526111
0.067031
0.0800796
0.0856694
0.0817542
0.069452
0.0506389
0.0288784
0.00896119
-0.00727475
-0.0208677
-0.0328454
-0.0412632
-0.0439335
-0.0416707
-0.0363742
-0.0291958
-0.0226099
-0.0199645
-0.022545
-0.0296174
-0.0394438
-0.050896
-0.0619913
-0.070139
-0.0744711
-0.0754981
-0.0729635
-0.0675771
-0.0610288
-0.0542729
-0.0480239
-0.0430135
-0.039266
-0.0367211
-0.0352459
-0.0342522
-0.0336495
-0.0335581
-0.033558
-0.0336492
-0.0342517
-0.0352453
-0.0367202
-0.0392648
-0.0430119
-0.048022
-0.054271
-0.0610273
-0.0675764
-0.072964
-0.0754999
-0.074474
-0.0701429
-0.0619957
-0.0509003
-0.0394476
-0.0296204
-0.0225468
-0.0199649
-0.0226088
-0.0291934
-0.0363706
-0.0416661
-0.0439285
-0.0412583
-0.0328406
-0.0208633
-0.00727115
0.00896376
0.0288802
0.0506403
0.069453
0.0817548
0.0856696
0.0800792
0.0670299
0.0526095
0.0435917
0.0408125
0.0384385
0.0304144
0.0173136
0.00618312
0.00369203
0.00991908
0.0174747
0.0176207
0.00747773
0.00694997
0.0156935
0.0133625
0.00308161
-0.00533643
-0.00330653
0.00927847
0.0245151
0.0336646
0.0353534
0.0360463
0.0426459
0.0552775
0.0677186
0.0735473
0.069452
0.0555399
0.0340698
0.0100875
-0.0108429
-0.0274707
-0.0414832
-0.0537891
-0.0625506
-0.0660924
-0.0651365
-0.0605012
-0.0522741
-0.0430971
-0.0366654
-0.0341141
-0.0350129
-0.0384622
-0.0437343
-0.0491201
-0.0524126
-0.0531152
-0.0519911
-0.0486777
-0.0436309
-0.0383284
-0.0332467
-0.028581
-0.0249926
-0.0224811
-0.0209223
-0.0203282
-0.0202123
-0.020304
-0.0205682
-0.0205682
-0.020304
-0.0202124
-0.0203284
-0.0209225
-0.0224809
-0.0249917
-0.0285793
-0.0332444
-0.0383258
-0.0436287
-0.0486766
-0.0519914
-0.0531171
-0.0524159
-0.0491243
-0.0437388
-0.0384665
-0.0350167
-0.034117
-0.0366672
-0.0430979
-0.0522737
-0.0604995
-0.0651335
-0.0660885
-0.0625461
-0.053784
-0.041478
-0.0274662
-0.0108394
0.0100902
0.034072
0.0555416
0.069453
0.0735475
0.0677182
0.0552763
0.0426441
0.0360446
0.0353522
0.033664
0.0245148
0.00927807
-0.00330709
-0.00533707
0.00308092
0.0133617
0.0156928
0.0069497
0.00631835
0.0139042
0.0105399
-0.000771512
-0.010045
-0.00823247
0.00499023
0.0211002
0.0303239
0.0306668
0.0286579
0.0318722
0.0413246
0.0515951
0.0561765
0.0506389
0.0340698
0.00913287
-0.0176655
-0.04012
-0.0574496
-0.0719092
-0.0842062
-0.0925628
-0.0958251
-0.0946081
-0.0888637
-0.0779802
-0.0648805
-0.05357
-0.0452092
-0.0396945
-0.0368771
-0.0362939
-0.0364895
-0.0357253
-0.0338226
-0.0316141
-0.0286019
-0.0249245
-0.0216165
-0.0185732
-0.0154762
-0.0129521
-0.0110733
-0.00978572
-0.0093572
-0.00953145
-0.00990144
-0.0102861
-0.0102863
-0.00990176
-0.00953196
-0.00935782
-0.0097863
-0.0110736
-0.0129518
-0.0154751
-0.0185713
-0.0216139
-0.0249218
-0.0285997
-0.031613
-0.033823
-0.0357272
-0.0364927
-0.0362978
-0.0368815
-0.0396988
-0.0452132
-0.0535734
-0.0648832
-0.077982
-0.0888643
-0.0946073
-0.0958229
-0.0925594
-0.0842017
-0.0719042
-0.0574448
-0.0401159
-0.0176622
0.00913565
0.034072
0.0506403
0.056177
0.0515948
0.0413236
0.0318708
0.0286565
0.030666
0.0303237
0.0211004
0.00499035
-0.00823248
-0.0100452
-0.000771988
0.010539
0.0139034
0.00631797
0.0054895
0.0119665
0.00852309
-0.00234108
-0.0114096
-0.00993072
0.00269713
0.0180782
0.0261973
0.024694
0.019803
0.0193389
0.0251059
0.0326908
0.0357578
0.0288784
0.0100875
-0.0176655
-0.0466717
-0.0702891
-0.0880731
-0.102705
-0.114626
-0.122111
-0.124547
-0.122371
-0.114851
-0.100972
-0.0838826
-0.0677881
-0.0540098
-0.0428608
-0.0349735
-0.0301093
-0.0269569
-0.024185
-0.0216888
-0.0200125
-0.0184042
-0.0166983
-0.0155116
-0.014392
-0.0127498
-0.0112417
-0.00998309
-0.00887186
-0.0083057
-0.00830693
-0.00847398
-0.00864967
-0.00864994
-0.0084747
-0.00830785
-0.00830653
-0.00887241
-0.00998328
-0.0112415
-0.0127492
-0.014391
-0.01551
-0.0166962
-0.0184018
-0.0200104
-0.0216875
-0.0241848
-0.0269583
-0.030112
-0.0349774
-0.0428654
-0.0540147
-0.0677928
-0.0838869
-0.100975
-0.114853
-0.122372
-0.124547
-0.122109
-0.114623
-0.102701
-0.0880685
-0.0702849
-0.0466681
-0.0176622
0.0100902
0.0288802
0.0357585
0.0326908
0.0251052
0.0193378
0.0198019
0.0246935
0.0261974
0.0180788
0.0026979
-0.00992998
-0.0114091
-0.00234098
0.00852263
0.0119658
0.00548914
0.00377186
0.00782112
0.00398545
-0.00596148
-0.0143595
-0.0134429
-0.00231561
0.0114221
0.0182205
0.0155164
0.00880971
0.00563486
0.00843101
0.0139314
0.0162096
0.00896119
-0.0108429
-0.04012
-0.0702891
-0.0944089
-0.112218
-0.126656
-0.137928
-0.14449
-0.146264
-0.143348
-0.134401
-0.118203
-0.0979847
-0.0780223
-0.0598528
-0.0443305
-0.0329753
-0.0257836
-0.0214674
-0.0189816
-0.0179694
-0.0182645
-0.018731
-0.0189759
-0.0194331
-0.0197223
-0.019294
-0.0188587
-0.0184859
-0.0177854
-0.0170353
-0.0165291
-0.0160556
-0.0157029
-0.0157033
-0.0160566
-0.0165303
-0.0170362
-0.0177858
-0.0184859
-0.0188585
-0.0192938
-0.019722
-0.0194327
-0.018975
-0.0187293
-0.0182622
-0.0179669
-0.0189798
-0.021467
-0.0257847
-0.0329781
-0.0443347
-0.0598578
-0.0780276
-0.09799
-0.118208
-0.134405
-0.143351
-0.146265
-0.14449
-0.137927
-0.126653
-0.112214
-0.0944047
-0.0702849
-0.0401159
-0.0108393
0.00896377
0.016211
0.0139318
0.00843053
0.00563376
0.00880846
0.0155156
0.0182204
0.0114226
-0.00231473
-0.0134419
-0.0143586
-0.00596089
0.00398545
0.00782073
0.00377162
0.000782632
0.000278978
-0.00508651
-0.0142934
-0.0217911
-0.0213563
-0.0118722
0.00031688
0.00665348
0.00437895
-0.00224557
-0.00656588
-0.00575363
-0.00182854
-3.42345e-05
-0.00727475
-0.0274707
-0.0574496
-0.0880731
-0.112218
-0.129683
-0.14347
-0.153626
-0.159006
-0.16004
-0.156404
-0.146241
-0.128299
-0.105742
-0.0827966
-0.0612202
-0.0425121
-0.0291126
-0.0211846
-0.0173377
-0.0166342
-0.0182057
-0.0209849
-0.0235307
-0.0253374
-0.0268565
-0.0280477
-0.0285371
-0.0290257
-0.029537
-0.0293294
-0.0284436
-0.027421
-0.0262943
-0.0254029
-0.0254031
-0.0262949
-0.0274218
-0.0284443
-0.0293298
-0.0295371
-0.0290256
-0.0285371
-0.0280478
-0.0268567
-0.0253372
-0.0235298
-0.0209832
-0.0182034
-0.0166317
-0.0173358
-0.021184
-0.0291137
-0.0425149
-0.0612245
-0.0828018
-0.105748
-0.128304
-0.146246
-0.156408
-0.160043
-0.159007
-0.153626
-0.143469
-0.12968
-0.112214
-0.0880685
-0.0574448
-0.0274661
-0.00727114
-3.19685e-05
-0.00182765
-0.00575393
-0.00656712
-0.00224725
0.00437752
0.00665269
0.00031674
-0.0118719
-0.0213558
-0.0217904
-0.0142929
-0.00508635
0.000278808
0.000782493
-0.00274605
-0.00868104
-0.015957
-0.0242894
-0.0305505
-0.0304024
-0.0225841
-0.0118648
-0.00537799
-0.00607195
-0.0112883
-0.0157571
-0.0165117
-0.0142463
-0.0133095
-0.0208677
-0.0414832
-0.0719092
-0.102705
-0.126656
-0.14347
-0.155999
-0.164224
-0.167662
-0.167246
-0.162259
-0.15042
-0.130559
-0.105772
-0.0802301
-0.0559565
-0.0351029
-0.020851
-0.0132932
-0.0107545
-0.0121873
-0.0161778
-0.0209863
-0.0251914
-0.0282659
-0.0306759
-0.0326651
-0.0338924
-0.0349064
-0.0358376
-0.0358736
-0.0349682
-0.0338787
-0.0327053
-0.0317156
-0.0317155
-0.032705
-0.0338786
-0.0349684
-0.035874
-0.0358382
-0.0349069
-0.0338926
-0.0326651
-0.0306758
-0.0282658
-0.025191
-0.0209855
-0.0161762
-0.012185
-0.0107519
-0.013291
-0.02085
-0.0351036
-0.0559591
-0.0802343
-0.105777
-0.130565
-0.150425
-0.162265
-0.16725
-0.167665
-0.164225
-0.155999
-0.143469
-0.126653
-0.102701
-0.0719042
-0.041478
-0.0208632
-0.0133064
-0.0142448
-0.0165117
-0.0157583
-0.0112902
-0.00607391
-0.00537952
-0.0118659
-0.0225848
-0.0304029
-0.0305507
-0.0242893
-0.0159569
-0.00868102
-0.00274608
-0.005682
-0.0159303
-0.0241362
-0.0307506
-0.0351404
-0.0349828
-0.0289521
-0.0200688
-0.0137165
-0.0129215
-0.0167052
-0.0214277
-0.024114
-0.0240606
-0.0245997
-0.0328454
-0.0537891
-0.0842062
-0.114626
-0.137928
-0.153626
-0.164224
-0.169768
-0.17063
-0.168185
-0.161342
-0.147434
-0.125516
-0.098741
-0.0712493
-0.0453767
-0.0238161
-0.0100775
-0.00384524
-0.00302897
-0.00637259
-0.0120959
-0.0182186
-0.0236914
-0.0280179
-0.0315113
-0.0344381
-0.0362686
-0.0373079
-0.038014
-0.0379288
-0.0371688
-0.0366276
-0.0362003
-0.0356848
-0.0356844
-0.0361994
-0.0366266
-0.0371684
-0.0379291
-0.0380149
-0.0373089
-0.0362692
-0.0344382
-0.031511
-0.0280175
-0.0236911
-0.0182183
-0.0120952
-0.00637106
-0.00302653
-0.00384236
-0.0100749
-0.0238145
-0.0453771
-0.0712517
-0.0987451
-0.125521
-0.14744
-0.161348
-0.16819
-0.170634
-0.169771
-0.164225
-0.153626
-0.137927
-0.114623
-0.0842017
-0.053784
-0.0328406
-0.024596
-0.0240585
-0.0241136
-0.0214287
-0.0167072
-0.0129237
-0.0137185
-0.0200707
-0.0289539
-0.0349845
-0.0351414
-0.0307509
-0.024136
-0.0159299
-0.00568184
-0.00754105
-0.0201812
-0.0278918
-0.0317609
-0.0334167
-0.0324759
-0.027681
-0.0204087
-0.0142662
-0.0122769
-0.01506
-0.0206196
-0.0259634
-0.0289505
-0.0318007
-0.0412632
-0.0625506
-0.0925628
-0.122111
-0.14449
-0.159006
-0.167662
-0.17063
-0.169096
-0.164769
-0.156227
-0.140507
-0.117066
-0.0891991
-0.0609193
-0.0348356
-0.0139681
-0.00168177
0.0029031
0.00217609
-0.00250574
-0.00923891
-0.0161069
-0.0225631
-0.0280843
-0.0325983
-0.0362134
-0.0382739
-0.0389479
-0.0391086
-0.0388076
-0.038358
-0.0386331
-0.0392061
-0.0393394
-0.0393391
-0.0392052
-0.038632
-0.0383573
-0.0388074
-0.0391092
-0.0389489
-0.0382748
-0.0362139
-0.0325982
-0.0280839
-0.0225626
-0.0161066
-0.00923862
-0.00250497
0.00217774
0.00290561
-0.00167868
-0.0139652
-0.0348339
-0.0609195
-0.0892014
-0.11707
-0.140513
-0.156233
-0.164775
-0.1691
-0.170634
-0.167665
-0.159007
-0.14449
-0.122109
-0.0925594
-0.062546
-0.0412583
-0.0317964
-0.0289477
-0.0259623
-0.02062
-0.0150615
-0.012279
-0.0142684
-0.0204112
-0.0276838
-0.0324786
-0.0334186
-0.0317614
-0.0278913
-0.0201804
-0.00754066
-0.00826825
-0.0213671
-0.0273414
-0.0276818
-0.0257336
-0.0227532
-0.0177021
-0.0107092
-0.0039619
-0.000574712
-0.00267641
-0.00977239
-0.0187157
-0.0258926
-0.0322705
-0.0439335
-0.0660924
-0.0958251
-0.124547
-0.146264
-0.16004
-0.167246
-0.168185
-0.164769
-0.159027
-0.149306
-0.132469
-0.108505
-0.080782
-0.0529752
-0.0278378
-0.00843613
0.00236478
0.00587967
0.00444301
-0.000794973
-0.00804143
-0.0154262
-0.0226727
-0.0290657
-0.0340222
-0.0375844
-0.0393771
-0.0396679
-0.0395774
-0.0393914
-0.0393613
-0.040169
-0.0412139
-0.0415992
-0.0415992
-0.0412138
-0.0401686
-0.0393607
-0.0393908
-0.0395771
-0.0396681
-0.0393779
-0.0375854
-0.0340228
-0.0290658
-0.0226722
-0.0154257
-0.008041
-0.000794583
0.00444372
0.00588107
0.00236716
-0.00843304
-0.027835
-0.0529736
-0.0807823
-0.108507
-0.132474
-0.149312
-0.159033
-0.164775
-0.16819
-0.16725
-0.160043
-0.146265
-0.124547
-0.0958229
-0.0660885
-0.0439285
-0.0322657
-0.0258889
-0.0187136
-0.0097717
-0.00267689
-0.000576007
-0.00396389
-0.010712
-0.0177056
-0.0227567
-0.0257361
-0.0276825
-0.0273407
-0.0213659
-0.0082677
-0.00760365
-0.0188232
-0.0216813
-0.017834
-0.0116593
-0.00557208
0.00115456
0.00913515
0.0170993
0.0217079
0.0195247
0.0098966
-0.00365337
-0.0160569
-0.0269759
-0.0416707
-0.0651365
-0.0946081
-0.122371
-0.143348
-0.156404
-0.162259
-0.161342
-0.156227
-0.149306
-0.138797
-0.121543
-0.0981582
-0.0718814
-0.0457414
-0.0223806
-0.00467653
0.0050596
0.00824811
0.00680656
0.00137985
-0.0064278
-0.0144754
-0.0223787
-0.0292235
-0.0340518
-0.0370654
-0.038529
-0.0389248
-0.0392849
-0.0396902
-0.0400624
-0.0408639
-0.0415962
-0.0416684
-0.0416688
-0.0415969
-0.0408645
-0.0400624
-0.0396896
-0.039284
-0.0389241
-0.0385291
-0.0370663
-0.0340529
-0.0292242
-0.0223788
-0.014475
-0.00642717
0.00138034
0.00680686
0.00824863
0.00506091
-0.00467419
-0.0223777
-0.0457388
-0.0718799
-0.0981587
-0.121546
-0.138801
-0.149312
-0.156233
-0.161348
-0.162265
-0.156408
-0.143351
-0.122372
-0.0946073
-0.0651335
-0.0416661
-0.026971
-0.0160526
-0.00365019
0.0098987
0.0195258
0.0217081
0.0170983
0.00913279
0.00115103
-0.00557587
-0.011662
-0.0178348
-0.0216805
-0.0188219
-0.00760304
-0.0053692
-0.012109
-0.010454
-0.00208811
0.00826698
0.0176503
0.0265234
0.035832
0.0447639
0.049664
0.0461346
0.0328935
0.0141303
-0.00367709
-0.0190058
-0.0363742
-0.0605012
-0.0888637
-0.114851
-0.134401
-0.146241
-0.15042
-0.147434
-0.140507
-0.132469
-0.121543
-0.104722
-0.0831225
-0.0594777
-0.0358593
-0.0146042
0.00155387
0.0105614
0.0135891
0.012034
0.00605789
-0.0027311
-0.0115943
-0.0199141
-0.0268924
-0.031542
-0.0343198
-0.0360643
-0.0372849
-0.0386242
-0.0397569
-0.0403291
-0.0407786
-0.040882
-0.0404569
-0.0404572
-0.0408828
-0.0407795
-0.0403296
-0.0397568
-0.0386233
-0.0372838
-0.0360635
-0.0343198
-0.0315428
-0.0268935
-0.0199151
-0.0115947
-0.00273067
0.00605861
0.0120346
0.0135895
0.010562
0.00155517
-0.0146021
-0.0358566
-0.0594751
-0.0831211
-0.104722
-0.121546
-0.132474
-0.140513
-0.14744
-0.150425
-0.146246
-0.134405
-0.114853
-0.0888643
-0.0604995
-0.0363706
-0.0190013
-0.00367271
0.0141343
0.0328971
0.0461375
0.049666
0.0447643
0.0358306
0.0265204
0.0176468
0.0082645
-0.00208879
-0.0104532
-0.0121077
-0.00536859
-0.00203306
-0.00257258
0.00422783
0.0167452
0.0305221
0.0426539
0.0534502
0.0638713
0.073149
0.0772302
0.0711585
0.0536035
0.0297688
0.00748913
-0.0108089
-0.0291958
-0.0522741
-0.0779802
-0.100972
-0.118203
-0.128299
-0.130559
-0.125516
-0.117066
-0.108505
-0.0981582
-0.0831225
-0.0646135
-0.0444629
-0.023664
-0.00425622
0.0108415
0.0193681
0.0220292
0.019904
0.0130264
0.00325164
-0.00607793
-0.014294
-0.0210949
-0.0257965
-0.0290056
-0.0316767
-0.0339746
-0.0360993
-0.0375246
-0.0379543
-0.0380482
-0.0378228
-0.0371985
-0.0371985
-0.037823
-0.0380486
-0.0379549
-0.037525
-0.0360993
-0.0339739
-0.0316757
-0.0290049
-0.0257964
-0.0210958