/*--------------------------------*- C++ -*----------------------------------*\
  =========                 |
  \\      /  F ield         | OpenFOAM: The Open Source CFD Toolbox
   \\    /   O peration     | Website:  https://openfoam.org
    \\  /    A nd           | Version:  10
     \\/     M anipulation  |
\*---------------------------------------------------------------------------*/
FoamFile
{
    format      ascii;
    class       volScalarField;
    location    "52";
    object      h_0;
}
// * * * * * * * * * * * * * * * * * * * * * * * * * * * * * * * * * * * * * //

dimensions      [0 1 0 0 0 0 0];

internalField   nonuniform List<scalar> 
10000
(
-0.00114312
-0.00299607
-0.00378598
-0.00352052
-0.00287561
-0.00277159
-0.00365962
-0.00500087
-0.00556017
-0.00438778
-0.00162993
0.0016958
0.00457143
0.00652483
0.0074777
0.00749927
0.00696375
0.00631019
0.00545375
0.00371557
0.0007134
-0.00282137
-0.00574824
-0.00757515
-0.00825796
-0.00755683
-0.00529638
-0.00193908
0.00166225
0.00516682
0.00861988
0.0116579
0.0138686
0.0153227
0.0161372
0.0161613
0.0152977
0.0136368
0.0113002
0.00825241
0.00446814
0.000137137
-0.00456105
-0.00957519
-0.0146779
-0.0195073
-0.023831
-0.0274268
-0.0299765
-0.0312686
-0.0312689
-0.0299773
-0.027428
-0.0238323
-0.0195086
-0.0146788
-0.00957566
-0.00456103
0.000137578
0.00446886
0.00825323
0.0113009
0.0136372
0.0152978
0.016161
0.0161366
0.0153219
0.0138678
0.0116573
0.00861951
0.00516676
0.00166252
-0.00193857
-0.00529577
-0.00755621
-0.0082574
-0.00757474
-0.00574805
-0.00282137
0.000713282
0.00371534
0.0054534
0.0063098
0.00696347
0.00749917
0.00747778
0.00652503
0.00457171
0.00169607
-0.0016298
-0.00438783
-0.0055603
-0.00500099
-0.00365972
-0.00277174
-0.00287588
-0.00352088
-0.00378637
-0.00299638
-0.00114325
-0.00299607
-0.00771865
-0.00934573
-0.00794769
-0.00557019
-0.00497303
-0.00751067
-0.0116188
-0.0136929
-0.0109524
-0.00379905
0.00484646
0.0120807
0.0166151
0.018347
0.0176349
0.0156951
0.0138559
0.0118525
0.00765976
8.8483e-05
-0.00888532
-0.0161093
-0.0202735
-0.0213413
-0.0187036
-0.0119259
-0.00233779
0.00769019
0.0172712
0.0266241
0.0348298
0.0407969
0.0447579
0.0470319
0.0471445
0.0447594
0.0400647
0.0333414
0.024469
0.0133972
0.000692357
-0.0130813
-0.0277132
-0.0425172
-0.0564489
-0.0688434
-0.0790955
-0.0863367
-0.0899967
-0.0899974
-0.0863388
-0.0790986
-0.0688469
-0.0564521
-0.0425197
-0.0277146
-0.0130815
0.000693251
0.0133988
0.0244709
0.0333431
0.0400658
0.0447597
0.047144
0.0470307
0.0447563
0.0407953
0.0348285
0.0266234
0.0172712
0.00769087
-0.00233662
-0.0119246
-0.0187022
-0.0213401
-0.0202727
-0.0161089
-0.00888527
8.83408e-05
0.00765938
0.0118518
0.013855
0.0156944
0.0176346
0.0183471
0.0166156
0.0120814
0.00484699
-0.00379894
-0.0109528
-0.0136935
-0.0116192
-0.00751086
-0.00497329
-0.00557078
-0.00794861
-0.00934675
-0.00771947
-0.00299639
-0.00378598
-0.00934573
-0.0100516
-0.00615482
-0.00109316
0.000584268
-0.00333792
-0.0103868
-0.0148453
-0.0122854
-0.00327316
0.00771237
0.0162424
0.0204703
0.0205327
0.0173949
0.0132888
0.0104233
0.00834006
0.0037582
-0.00533992
-0.0162242
-0.0243694
-0.0280097
-0.0273067
-0.0215357
-0.0102442
0.00448826
0.0192062
0.032759
0.0456822
0.0568893
0.0649708
0.0703774
0.0735761
0.0737481
0.0702524
0.0632043
0.0528596
0.0389931
0.0215866
0.00154542
-0.0201532
-0.043023
-0.0659421
-0.0873131
-0.10613
-0.12155
-0.132372
-0.137817
-0.137818
-0.132374
-0.121554
-0.106134
-0.0873174
-0.0659456
-0.0430253
-0.0201541
0.00154582
0.021588
0.038995
0.0528616
0.0632059
0.0702534
0.0737483
0.0735757
0.0703765
0.0649699
0.0568886
0.0456818
0.0327591
0.0192068
0.00448915
-0.0102433
-0.0215349
-0.0273059
-0.0280091
-0.0243692
-0.0162241
-0.00533975
0.00375821
0.00833959
0.0104225
0.013288
0.0173945
0.0205327
0.0204706
0.0162429
0.00771269
-0.00327347
-0.0122863
-0.0148464
-0.0103873
-0.00333789
0.000584345
-0.00109355
-0.00615578
-0.0100529
-0.00934676
-0.00378638
-0.00352052
-0.00794769
-0.00615482
0.00130659
0.0096636
0.0127623
0.00768062
-0.00230812
-0.00972107
-0.00875814
-4.80497e-05
0.0107936
0.0181936
0.0199219
0.016502
0.00973649
0.00293955
-0.000925345
-0.00253771
-0.00618308
-0.0145308
-0.0245399
-0.0309688
-0.0318632
-0.0276369
-0.0176997
-0.00192324
0.0169271
0.034756
0.0503274
0.0644629
0.0762628
0.0844158
0.0896586
0.0925886
0.0921462
0.0874599
0.0784878
0.0653135
0.047629
0.0255101
7.90756e-05
-0.0273456
-0.0559517
-0.0843013
-0.110474
-0.133254
-0.151728
-0.164603
-0.171051
-0.171052
-0.164606
-0.151732
-0.133258
-0.110478
-0.0843052
-0.0559549
-0.0273477
7.80896e-05
0.0255102
0.04763
0.0653152
0.0784898
0.087462
0.0921481
0.0925902
0.0896599
0.0844168
0.0762634
0.0644633
0.0503275
0.0347559
0.0169268
-0.00192391
-0.0177005
-0.0276377
-0.0318637
-0.0309691
-0.0245399
-0.0145302
-0.00618247
-0.00253761
-0.00092582
0.00293887
0.00973597
0.0165018
0.019922
0.0181938
0.0107936
-4.87643e-05
-0.00875948
-0.00972226
-0.00230836
0.00768135
0.0127633
0.00966402
0.00130617
-0.00615578
-0.00794862
-0.0035209
-0.00287561
-0.00557019
-0.00109316
0.0096636
0.0208071
0.0249465
0.0187391
0.00618684
-0.00385765
-0.00456516
0.00345882
0.0138514
0.0201623
0.0197234
0.013298
0.00349277
-0.0054642
-0.0101543
-0.0115401
-0.0145041
-0.0219509
-0.0307284
-0.0352919
-0.033463
-0.0256541
-0.011522
0.00839374
0.0306205
0.0507175
0.0672868
0.081106
0.0915891
0.0978303
0.100881
0.101512
0.0987206
0.0917088
0.0803977
0.0646998
0.0443301
0.0195112
-0.00863099
-0.0386648
-0.0695554
-0.0997979
-0.127471
-0.151312
-0.170469
-0.183748
-0.190377
-0.190377
-0.18375
-0.170471
-0.151316
-0.127475
-0.099802
-0.0695594
-0.0386683
-0.00863362
0.0195096
0.0443299
0.0647009
0.0804
0.091712
0.0987244
0.101516
0.100885
0.0978333
0.0915912
0.081107
0.0672867
0.0507164
0.0306187
0.00839125
-0.0115247
-0.0256565
-0.0334649
-0.035293
-0.0307286
-0.0219502
-0.0145031
-0.0115395
-0.0101545
-0.00546482
0.00349216
0.0132977
0.0197235
0.0201626
0.0138515
0.00345807
-0.00456648
-0.00385862
0.00618717
0.0187408
0.0249486
0.0208086
0.00966402
-0.00109355
-0.00557079
-0.00287589
-0.00277159
-0.00497303
0.000584268
0.0127623
0.0249465
0.0290481
0.0216619
0.0074164
-0.00393632
-0.00496188
0.0037955
0.0155582
0.0231619
0.023273
0.0165229
0.00605897
-0.00334513
-0.00823942
-0.00995425
-0.0134894
-0.0214325
-0.0305039
-0.0350559
-0.0324449
-0.0226053
-0.00537622
0.0178205
0.0427681
0.0648274
0.0821862
0.0950489
0.103009
0.105705
0.104483
0.100355
0.092771
0.0814478
0.0665651
0.0480313
0.02576
0.000162149
-0.0278678
-0.0571064
-0.0865226
-0.11487
-0.140585
-0.162545
-0.180054
-0.192158
-0.198192
-0.198193
-0.192159
-0.180056
-0.162547
-0.140588
-0.114874
-0.086527
-0.0571107
-0.0278716
0.000159474
0.0257588
0.048032
0.0665675
0.0814517
0.092776
0.10036
0.104488
0.105709
0.103012
0.0950503
0.082186
0.0648258
0.0427654
0.017817
-0.00538005
-0.0226088
-0.0324476
-0.0350576
-0.0305045
-0.021432
-0.0134884
-0.00995348
-0.0082394
-0.00334565
0.00605844
0.0165228
0.0232734
0.0231625
0.0155585
0.00379495
-0.00496305
-0.00393713
0.007417
0.021664
0.0290507
0.0249486
0.0127633
0.000584344
-0.0049733
-0.00277176
-0.00365962
-0.00751067
-0.00333792
0.00768062
0.0187391
0.0216619
0.0132806
-0.00137842
-0.0122528
-0.0118049
-0.000500367
0.0147855
0.0263428
0.0299756
0.0258146
0.01727
0.00931247
0.00505132
0.0027325
-0.00232551
-0.0119335
-0.0226731
-0.0289953
-0.0276012
-0.0174889
0.0014417
0.0268111
0.0536892
0.0773751
0.0954495
0.107088
0.11185
0.109952
0.10297
0.092173
0.0777903
0.0604242
0.0408062
0.0190462
-0.00457912
-0.0294347
-0.0550053
-0.0805491
-0.105266
-0.128439
-0.149164
-0.166648
-0.18045
-0.189966
-0.194712
-0.194713
-0.189967
-0.180452
-0.166651
-0.149167
-0.128443
-0.105271
-0.0805535
-0.0550091
-0.0294376
-0.00458053
0.0190466
0.0408083
0.0604279
0.077795
0.0921783
0.102975
0.109957
0.111853
0.10709
0.0954498
0.077374
0.053687
0.0268081
0.00143813
-0.0174924
-0.027604
-0.0289972
-0.0226739
-0.0119333
-0.00232461
0.0027333
0.00505147
0.00931209
0.0172697
0.0258148
0.0299764
0.0263438
0.014786
-0.000500874
-0.0118062
-0.012254
-0.00137835
0.0132821
0.021664
0.0187408
0.00768136
-0.00333789
-0.00751087
-0.00365974
-0.00500087
-0.0116188
-0.0103868
-0.00230812
0.00618684
0.0074164
-0.00137842
-0.0151515
-0.0242049
-0.0213928
-0.0070419
0.0122452
0.0284951
0.0366287
0.0360777
0.0303795
0.0245279
0.0211241
0.0180641
0.011339
0.000161577
-0.0120452
-0.0201785
-0.0203688
-0.0105093
0.0094521
0.0362003
0.064224
0.0889455
0.107375
0.117528
0.118853
0.112174
0.0992273
0.081487
0.0600824
0.0365908
0.0123757
-0.0121532
-0.0363022
-0.0592061
-0.0807297
-0.100714
-0.118693
-0.134574
-0.148259
-0.159439
-0.168017
-0.173864
-0.176772
-0.176773
-0.173866
-0.168019
-0.159441
-0.148262
-0.134577
-0.118697
-0.100717
-0.0807327
-0.0592083
-0.0363033
-0.0121531
0.012377
0.0365932
0.0600857
0.081491
0.0992315
0.112178
0.118857
0.11753
0.107376
0.0889461
0.0642236
0.0361989
0.00944972
-0.0105121
-0.0203713
-0.0201804
-0.0120462
0.000161437
0.0113395
0.0180648
0.0211243
0.0245276
0.0303793
0.0360781
0.0366298
0.0284963
0.0122456
-0.00704265
-0.0213945
-0.0242068
-0.0151525
-0.00137834
0.00741701
0.00618718
-0.00230835
-0.0103873
-0.0116192
-0.00500101
-0.00556017
-0.0136929
-0.0148453
-0.00972107
-0.00385765
-0.00393632
-0.0122528
-0.0242049
-0.0311145
-0.0266087
-0.0107194
0.0106849
0.0297778
0.0407735
0.0424114
0.0383433
0.0335659
0.0302101
0.0260326
0.0179657
0.0063088
-0.00574495
-0.0139937
-0.0143782
-0.00390012
0.0173114
0.045075
0.0734814
0.0982713
0.116156
0.124242
0.121997
0.110948
0.0930042
0.0697749
0.0431633
0.0154764
-0.0114835
-0.0370809
-0.0603293
-0.0802024
-0.096829
-0.110547
-0.121185
-0.129167
-0.135161
-0.139396
-0.142168
-0.143887
-0.144712
-0.144712
-0.143888
-0.14217
-0.139398
-0.135163
-0.129169
-0.121187
-0.110549
-0.0968307
-0.0802036
-0.0603302
-0.0370813
-0.0114834
0.015477
0.0431648
0.0697772
0.0930072
0.110952
0.122001
0.124246
0.116159
0.0982741
0.0734831
0.0450754
0.0173104
-0.00390212
-0.0143804
-0.0139957
-0.0057465
0.00630801
0.0179656
0.0260328
0.0302099
0.0335653
0.0383429
0.0424117
0.0407744
0.0297786
0.010685
-0.0107205
-0.0266107
-0.0311169
-0.0242068
-0.012254
-0.00393712
-0.0038586
-0.00972225
-0.0148464
-0.0136935
-0.00556031
-0.00438778
-0.0109524
-0.0122854
-0.00875814
-0.00456516
-0.00496188
-0.0118049
-0.0213928
-0.0266087
-0.0220418
-0.00715524
0.0134205
0.0324424
0.0436543
0.0451544
0.040642
0.0351178
0.0303876
0.0243555
0.0150752
0.00383711
-0.0066335
-0.0133836
-0.0125733
-0.000701931
0.0217423
0.0498235
0.0774323
0.100757
0.116548
0.121494
0.115365
0.100504
0.0790374
0.0526691
0.0238308
-0.00487477
-0.0315884
-0.0556624
-0.0760861
-0.0918312
-0.103161
-0.110741
-0.114596
-0.115458
-0.114557
-0.112585
-0.11016
-0.108167
-0.107119
-0.107119
-0.108168
-0.110161
-0.112586
-0.114558
-0.115459
-0.114597
-0.110742
-0.103161
-0.091832
-0.0760871
-0.0556636
-0.0315897
-0.00487574
0.0238305
0.0526698
0.0790394
0.100508
0.115369
0.1215
0.116554
0.100762
0.0774358
0.0498254
0.0217424
-0.000703251
-0.0125754
-0.0133858
-0.00663549
0.00383565
0.0150743
0.0243549
0.0303867
0.0351165
0.0406409
0.045154
0.0436546
0.0324427
0.0134201
-0.00715643
-0.0220436
-0.0266107
-0.0213946
-0.0118062
-0.00496304
-0.00456647
-0.00875947
-0.0122863
-0.0109528
-0.00438783
-0.00162993
-0.00379905
-0.00327316
-4.80497e-05
0.00345882
0.0037955
-0.000500367
-0.0070419
-0.0107194
-0.00715524
0.00501075
0.0227877
0.0398562
0.0496636
0.0496675
0.0433944
0.0357335
0.0282825
0.0193698
0.00827444
-0.00288071
-0.0119361
-0.0172484
-0.0154451
-0.00290735
0.0194497
0.0461893
0.0712572
0.0912947
0.103303
0.104033
0.09378
0.0756843
0.0521125
0.0248982
-0.00324235
-0.0298429
-0.053369
-0.0733549
-0.0890586
-0.0996846
-0.105585
-0.107623
-0.105964
-0.101441
-0.0955701
-0.089307
-0.083388
-0.0789405
-0.0766814
-0.0766812
-0.07894
-0.0833873
-0.0893062
-0.0955693
-0.101441
-0.105964
-0.107623
-0.105586
-0.0996858
-0.0890604
-0.0733572
-0.0533715
-0.0298452
-0.0032439
0.0248978
0.0521137
0.0756871
0.0937844
0.104038
0.103309
0.0913001
0.0712617
0.0461922
0.0194508
-0.00290789
-0.0154467
-0.0172504
-0.0119381
-0.00288243
0.00827317
0.0193688
0.0282811
0.0357318
0.0433928
0.0496665
0.0496632
0.0398558
0.022787
0.0050097
-0.00715643
-0.0107205
-0.00704266
-0.000500879
0.00379496
0.00345808
-4.87616e-05
-0.00327347
-0.00379894
-0.00162979
0.0016958
0.00484646
0.00771237
0.0107936
0.0138514
0.0155582
0.0147855
0.0122452
0.0106849
0.0134205
0.0227877
0.0376615
0.0528125
0.0614533
0.0603334
0.052442
0.0423372
0.0314989
0.0189225
0.00513284
-0.00715193
-0.0163398
-0.0218984
-0.0209375
-0.00994557
0.00987358
0.0329968
0.0537415
0.0691128
0.0763738
0.0726453
0.0587585
0.0384037
0.0141093
-0.0121196
-0.0374547
-0.0598121
-0.0781878
-0.0923649
-0.102076
-0.107004
-0.10765
-0.105015
-0.0994293
-0.0916861
-0.0832937
-0.0752039
-0.0680036
-0.062754
-0.0601567
-0.0601562
-0.0627525
-0.0680014
-0.0752013
-0.0832913
-0.0916841
-0.0994281
-0.105015
-0.107651
-0.107006
-0.102079
-0.0923682
-0.0781913
-0.0598153
-0.0374572
-0.0121209
0.0141094
0.0384054
0.0587617
0.0726497
0.076379
0.069118
0.0537462
0.0330003
0.00987564
-0.00994495
-0.020938
-0.0218995
-0.0163411
-0.00715322
0.00513173
0.0189214
0.0314975
0.0423355
0.0524403
0.0603323
0.0614526
0.0528118
0.0376607
0.022787
0.0134201
0.010685
0.0122456
0.014786
0.0155585
0.0138515
0.0107936
0.00771269
0.004847
0.00169608
0.00457143
0.0120807
0.0162424
0.0181936
0.0201623
0.0231619
0.0263428
0.0284951
0.0297778
0.0324424
0.0398562
0.0528125
0.0672023
0.0760236
0.0752363
0.0668956
0.0549918
0.0409795
0.0247365
0.00800131
-0.00624129
-0.0169734
-0.0244529
-0.0261464
-0.0187473
-0.00352674
0.0143881
0.0300595
0.0407553
0.043836
0.0368947
0.0211029
0.000258211
-0.0231773
-0.0470395
-0.0684522
-0.0857278
-0.0983963
-0.106419
-0.110037
-0.10958
-0.105788
-0.0997856
-0.092095
-0.0833709
-0.0748449
-0.0672166
-0.0607125
-0.0560965
-0.053901
-0.0539003
-0.0560946
-0.0607096
-0.0672132
-0.0748415
-0.0833681
-0.0920933
-0.0997853
-0.105789
-0.109582
-0.11004
-0.106423
-0.0984002
-0.0857315
-0.0684553
-0.0470418
-0.0231785
0.000258193
0.0211042
0.0368972
0.0438396
0.0407596
0.0300639
0.0143921
-0.00352358
-0.0187452
-0.0261453
-0.0244525
-0.0169734
-0.00624162
0.00800081
0.0247359
0.0409786
0.0549907
0.0668945
0.0752356
0.0760232
0.0672018
0.0528118
0.0398558
0.0324427
0.0297786
0.0284963
0.0263438
0.0231625
0.0201626
0.0181938
0.0162429
0.0120814
0.00457173
0.00652483
0.0166151
0.0204703
0.0199219
0.0197234
0.023273
0.0299756
0.0366287
0.0407735
0.0436543
0.0496636
0.0614533
0.0760236
0.0862337
0.0872467
0.0798875
0.0673608
0.0511751
0.0322583
0.0134661
-0.00231622
-0.0146749
-0.0243463
-0.0290636
-0.0258262
-0.0158026
-0.0032669
0.00795298
0.0153047
0.016043
0.00821135
-0.00697462
-0.0261127
-0.0470557
-0.0675492
-0.0847045
-0.0971452
-0.104816
-0.107694
-0.106399
-0.101936
-0.0953102
-0.0876998
-0.0797855
-0.0720032
-0.0651211
-0.0594539
-0.0548115
-0.0516025
-0.0501756
-0.050175
-0.0516009
-0.054809
-0.0594509
-0.0651178
-0.0720003
-0.0797834
-0.0876989
-0.0953107
-0.101938
-0.106402
-0.107698
-0.104819
-0.0971489
-0.0847081
-0.0675525
-0.0470582
-0.0261144
-0.00697526
0.00821204
0.0160451
0.015308
0.00795702
-0.00326249
-0.0157984
-0.0258226
-0.0290608
-0.0243442
-0.0146734
-0.00231536
0.0134664
0.0322583
0.0511749
0.0673603
0.0798871
0.0872465
0.0862335
0.0760232
0.0614526
0.0496632
0.0436546
0.0407744
0.0366298
0.0299764
0.0232734
0.0197235
0.019922
0.0204706
0.0166156
0.00652505
0.0074777
0.018347
0.0205327
0.016502
0.013298
0.0165229
0.0258146
0.0360777
0.0424114
0.0451544
0.0496675
0.0603334
0.0752363
0.0872467
0.0907871
0.0852748
0.0729639
0.0555242
0.0351065
0.0155643
-0.000648584
-0.0138154
-0.0249311
-0.031931
-0.0321788
-0.0266533
-0.0184922
-0.0102084
-0.00425742
-0.00363375
-0.00990917
-0.0220481
-0.0373905
-0.0542808
-0.0705326
-0.0833324
-0.0915399
-0.0953956
-0.0947776
-0.0904705
-0.0839897
-0.0764665
-0.0689672
-0.0622388
-0.0564735
-0.0519476
-0.04864
-0.0460538
-0.0443142
-0.0436493
-0.043649
-0.0443133
-0.0460524
-0.048638
-0.0519453
-0.0564711
-0.0622367
-0.0689656
-0.0764657
-0.0839899
-0.0904718
-0.0947799
-0.0953986
-0.0915434
-0.0833363
-0.0705365
-0.0542844
-0.0373934
-0.0220501
-0.00990986
-0.00363286
-0.00425508
-0.0102049
-0.0184877
-0.0266484
-0.0321739
-0.0319267
-0.0249274
-0.0138124
-0.00064636
0.0155657
0.0351073
0.0555247
0.0729642
0.0852749
0.0907872
0.0872465
0.0752356
0.0603323
0.0496665
0.045154
0.0424117
0.0360781
0.0258148
0.0165228
0.0132977
0.0165018
0.0205327
0.0183471
0.00747779
0.00749927
0.0176349
0.0173949
0.00973649
0.00349277
0.00605897
0.01727
0.0303795
0.0383433
0.040642
0.0433944
0.052442
0.0668956
0.0798875
0.0852748
0.0810881
0.0685805
0.0496982
0.0279604
0.00809947
-0.0080386
-0.0214649
-0.0332347
-0.0414265
-0.0438407
-0.0413178
-0.035812
-0.0285272
-0.0219183
-0.0193041
-0.021975
-0.0291737
-0.0391064
-0.0506405
-0.061805
-0.0699956
-0.0743437
-0.0753649
-0.0728156
-0.0674092
-0.0608313
-0.0540435
-0.0477777
-0.0427532
-0.0389898
-0.0364378
-0.0349595
-0.033955
-0.0333438
-0.033252
-0.0332519
-0.0333435
-0.0339545
-0.0349588
-0.0364369
-0.0389885
-0.0427515
-0.0477758
-0.0540416
-0.0608298
-0.0674086
-0.0728161
-0.0753668
-0.0743467
-0.0699995
-0.0618093
-0.0506448
-0.0391103
-0.0291767
-0.0219768
-0.0193044
-0.0219172
-0.0285248
-0.0358084
-0.0413132
-0.0438357
-0.0414216
-0.0332299
-0.0214605
-0.00803504
0.00810198
0.0279621
0.0496996
0.0685815
0.0810887
0.0852749
0.0798871
0.0668945
0.0524403
0.0433928
0.0406409
0.0383429
0.0303793
0.0172697
0.00605842
0.00349214
0.00973595
0.0173945
0.0176346
0.00749918
0.00696375
0.0156951
0.0132888
0.00293955
-0.0054642
-0.00334513
0.00931247
0.0245279
0.0335659
0.0351178
0.0357335
0.0423372
0.0549918
0.0673608
0.0729639
0.0685805
0.0544624
0.0329352
0.00900484
-0.0118148
-0.0282778
-0.0420734
-0.054155
-0.0626898
-0.0659743
-0.0647649
-0.0599386
-0.0516203
-0.0424279
-0.0360355
-0.0335904
-0.0346335
-0.0382022
-0.0435719
-0.0490453
-0.0523901
-0.0531086
-0.0519741
-0.0486306
-0.0435422
-0.0381917
-0.0330644
-0.0283759
-0.0247786
-0.0222617
-0.0207084
-0.0201249
-0.0200072
-0.0200949
-0.0203625
-0.0203625
-0.020095
-0.0200073
-0.0201251
-0.0207085
-0.0222614
-0.0247778
-0.0283742
-0.0330621
-0.0381892
-0.0435401
-0.0486295
-0.0519745
-0.0531105
-0.0523935
-0.0490496
-0.0435764
-0.0382065
-0.0346373
-0.0335932
-0.0360373
-0.0424286
-0.0516199
-0.0599369
-0.0647619
-0.0659703
-0.0626852
-0.0541499
-0.0420683
-0.0282733
-0.0118113
0.00900749
0.0329374
0.0544641
0.0685815
0.0729642
0.0673603
0.0549907
0.0423355
0.0357318
0.0351165
0.0335654
0.0245276
0.00931209
-0.00334566
-0.00546483
0.00293886
0.013288
0.0156944
0.00696348
0.00631019
0.0138559
0.0104233
-0.000925345
-0.0101543
-0.00823942
0.00505132
0.0211241
0.0302101
0.0303876
0.0282825
0.0314989
0.0409795
0.0511751
0.0555242
0.0496982
0.0329352
0.00795839
-0.0187618
-0.0410605
-0.0581741
-0.0723886
-0.0844695
-0.0926252
-0.0956586
-0.0942224
-0.0883303
-0.0773929
-0.0643059
-0.0530624
-0.0448371
-0.0394918
-0.0368097
-0.0363363
-0.0366264
-0.0359101
-0.0340115
-0.0317825
-0.0287279
-0.0249984
-0.0216384
-0.0185479
-0.0154258
-0.0128933
-0.01101
-0.00972998
-0.00931788
-0.00949771
-0.00987026
-0.0102636
-0.0102637
-0.00987057
-0.00949821
-0.00931849
-0.00973055
-0.0110103
-0.012893
-0.0154246
-0.018546
-0.0216358
-0.0249957
-0.0287257
-0.0317815
-0.0340118
-0.035912
-0.0366296
-0.0363404
-0.0368141
-0.0394961
-0.0448411
-0.0530659
-0.0643086
-0.0773947
-0.0883309
-0.0942216
-0.0956564
-0.0926218
-0.084465
-0.0723836
-0.0581693
-0.0410565
-0.0187586
0.00796112
0.0329374
0.0496996
0.0555247
0.0511749
0.0409786
0.0314975
0.0282811
0.0303867
0.0302099
0.0211243
0.00505147
-0.00823941
-0.0101545
-0.000925816
0.0104225
0.013855
0.00630981
0.00545375
0.0118525
0.00834006
-0.00253771
-0.0115401
-0.00995425
0.0027325
0.0180641
0.0260326
0.0243555
0.0193698
0.0189225
0.0247365
0.0322583
0.0351065
0.0279604
0.00900484
-0.0187618
-0.0476645
-0.0710893
-0.0886208
-0.102996
-0.114722
-0.122041
-0.124288
-0.121934
-0.114312
-0.100414
-0.0833631
-0.0673643
-0.0537499
-0.0427919
-0.0350536
-0.0303057
-0.0272422
-0.0245013
-0.0219896
-0.0202828
-0.0186291
-0.0168756
-0.0156499
-0.0144962
-0.0128326
-0.011314
-0.0100452
-0.00893617
-0.00838726
-0.00840156
-0.00858091
-0.0087727
-0.00877296
-0.00858162
-0.00840247
-0.00838808
-0.00893672
-0.0100454
-0.0113138
-0.012832
-0.0144951
-0.0156483
-0.0168735
-0.0186267
-0.0202807
-0.0219883
-0.0245013
-0.0272436
-0.0303085
-0.0350575
-0.0427965
-0.0537547
-0.067369
-0.0833674
-0.100417
-0.114314
-0.121935
-0.124288
-0.122039
-0.114718
-0.102992
-0.0886163
-0.0710851
-0.0476608
-0.0187586
0.0090075
0.0279621
0.0351073
0.0322583
0.0247359
0.0189214
0.0193688
0.0243549
0.0260328
0.0180648
0.00273329
-0.00995351
-0.0115396
-0.00253761
0.0083396
0.0118518
0.0054534
0.00371557
0.00765976
0.0037582
-0.00618308
-0.0145041
-0.0134894
-0.00232551
0.011339
0.0179657
0.0150752
0.00827444
0.00513284
0.00800131
0.0134661
0.0155643
0.00809947
-0.0118148
-0.0410605
-0.0710893
-0.0949766
-0.112503
-0.126682
-0.137785
-0.144221
-0.14585
-0.142799
-0.133789
-0.117598
-0.0974356
-0.077592
-0.0596068
-0.0442881
-0.0330896
-0.0260157
-0.02178
-0.0193113
-0.018271
-0.0185351
-0.0189651
-0.0191768
-0.0196151
-0.0198892
-0.0194476
-0.0190022
-0.0186165
-0.0179142
-0.0171803
-0.0166912
-0.0162356
-0.0159031
-0.0159035
-0.0162366
-0.0166923
-0.0171812
-0.0179146
-0.0186165
-0.0190019
-0.0194474
-0.0198889
-0.0196146
-0.0191758
-0.0189634
-0.0185328
-0.0182686
-0.0193095
-0.0217796
-0.0260169
-0.0330925
-0.0442923
-0.0596119
-0.0775974
-0.0974408
-0.117603
-0.133793
-0.142802
-0.145851
-0.144221
-0.137783
-0.126678
-0.112499
-0.0949724
-0.0710851
-0.0410565
-0.0118113
0.008102
0.0155657
0.0134665
0.00800082
0.00513173
0.00827317
0.0150743
0.0179656
0.0113395
-0.00232463
-0.0134884
-0.0145031
-0.00618248
0.00375821
0.00765939
0.00371534
0.0007134
8.8483e-05
-0.00533992
-0.0145308
-0.0219509
-0.0214325
-0.0119335
0.000161577
0.0063088
0.00383711
-0.00288071
-0.00715193
-0.00624129
-0.00231622
-0.000648584
-0.0080386
-0.0282778
-0.0581741
-0.0886208
-0.112503
-0.12967
-0.143213
-0.153236
-0.158538
-0.159475
-0.155748
-0.145562
-0.127646
-0.105156
-0.0823427
-0.0609556
-0.0424457
-0.0291969
-0.0213799
-0.0176065
-0.016917
-0.0184624
-0.0212218
-0.0237464
-0.0255312
-0.0270422
-0.028229
-0.0287111
-0.0291952
-0.0297006
-0.0294944
-0.0286225
-0.0276114
-0.0264952
-0.0256185
-0.0256188
-0.0264958
-0.0276122
-0.0286232
-0.0294948
-0.0297007
-0.0291952
-0.0287111
-0.0282291
-0.0270423
-0.0255311
-0.0237455
-0.0212201
-0.01846
-0.0169145
-0.0176046
-0.0213793
-0.0291981
-0.0424486
-0.0609599
-0.0823479
-0.105162
-0.127651
-0.145567
-0.155753
-0.159477
-0.158539
-0.153236
-0.143211
-0.129667
-0.112499
-0.0886163
-0.0581693
-0.0282733
-0.00803503
-0.000646353
-0.00231535
-0.00624161
-0.00715321
-0.00288242
0.00383566
0.00630801
0.000161439
-0.0119333
-0.021432
-0.0219502
-0.0145302
-0.00533975
8.8341e-05
0.000713275
-0.00282137
-0.00888532
-0.0162242
-0.0245399
-0.0307284
-0.0305039
-0.0226731
-0.0120452
-0.00574495
-0.0066335
-0.0119361
-0.0163398
-0.0169734
-0.0146749
-0.0138154
-0.0214649
-0.0420734
-0.0723886
-0.102996
-0.126682
-0.143213
-0.155535
-0.163677
-0.167091
-0.166631
-0.161605
-0.149779
-0.12996
-0.105242
-0.0798284
-0.0557276
-0.0350438
-0.0209173
-0.0134507
-0.0109749
-0.0124229
-0.0163955
-0.0211967
-0.0253889
-0.0284383
-0.0308318
-0.0328116
-0.0340302
-0.0350462
-0.0359829
-0.0360258
-0.0351286
-0.0340358
-0.032854
-0.0318654
-0.0318653
-0.0328538
-0.0340358
-0.0351288
-0.0360262
-0.0359835
-0.0350467
-0.0340304
-0.0328116
-0.0308317
-0.0284382
-0.0253886
-0.0211959
-0.0163939
-0.0124206
-0.0109723
-0.0134486
-0.0209164
-0.0350445
-0.0557302
-0.0798325
-0.105247
-0.129966
-0.149785
-0.16161
-0.166635
-0.167093
-0.163679
-0.155534
-0.143211
-0.126678
-0.102992
-0.0723836
-0.0420683
-0.0214605
-0.0138124
-0.0146734
-0.0169734
-0.0163411
-0.0119381
-0.00663549
-0.00574649
-0.0120462
-0.0226739
-0.0305045
-0.0307286
-0.0245399
-0.0162241
-0.00888528
-0.00282138
-0.00574824
-0.0161093
-0.0243694
-0.0309688
-0.0352919
-0.0350559
-0.0289953
-0.0201785
-0.0139937
-0.0133836
-0.0172484
-0.0218984
-0.0244529
-0.0243463
-0.0249311
-0.0332347
-0.054155
-0.0844695
-0.114722
-0.137785
-0.153236
-0.163677
-0.169191
-0.170073
-0.167627
-0.160784
-0.146912
-0.125032
-0.0983092
-0.0709231
-0.0451878
-0.0237546
-0.0101092
-0.00394724
-0.00318631
-0.00655075
-0.012266
-0.0183883
-0.0238475
-0.028139
-0.0316043
-0.0345149
-0.0363346
-0.0373811
-0.0381004
-0.0380228
-0.0372632
-0.0367062
-0.0362558
-0.0357304
-0.03573
-0.0362548
-0.0367053
-0.0372628
-0.0380232
-0.0381013
-0.0373821
-0.0363352
-0.0345149
-0.031604
-0.0281387
-0.0238472
-0.018388
-0.0122653
-0.00654921
-0.00318385
-0.00394436
-0.0101066
-0.0237531
-0.0451881
-0.0709254
-0.0983133
-0.125037
-0.146918
-0.16079
-0.167632
-0.170077
-0.169194
-0.163679
-0.153236
-0.137783
-0.114718
-0.084465
-0.0541499
-0.0332299
-0.0249274
-0.0243442
-0.0244525
-0.0218995
-0.0172504
-0.0133858
-0.0139957
-0.0201804
-0.0289972
-0.0350576
-0.0352929
-0.0309691
-0.0243692
-0.0161089
-0.00574807
-0.00757515
-0.0202735
-0.0280097
-0.0318632
-0.033463
-0.0324449
-0.0276012
-0.0203688
-0.0143782
-0.0125733
-0.0154451
-0.0209375
-0.0261464
-0.0290636
-0.031931
-0.0414265
-0.0626898
-0.0926252
-0.122041
-0.144221
-0.158538
-0.167091
-0.170073
-0.168592
-0.164296
-0.155778
-0.140102
-0.116682
-0.0888392
-0.0606294
-0.0346427
-0.0138667
-0.0016565
0.00285971
0.00207087
-0.00264323
-0.00937689
-0.0162443
-0.0226818
-0.0281643
-0.0326513
-0.0362545
-0.0383067
-0.0389882
-0.0391583
-0.0388559
-0.0383989
-0.0386583
-0.0392111
-0.0393352
-0.0393349
-0.0392102
-0.0386572
-0.0383981
-0.0388558
-0.0391589
-0.0389892
-0.0383076
-0.036255
-0.0326513
-0.0281639
-0.0226813
-0.016244
-0.0093766
-0.00264245
0.00207254
0.00286224
-0.00165341
-0.0138638
-0.0346411
-0.0606297
-0.0888415
-0.116687
-0.140107
-0.155784
-0.164301
-0.168597
-0.170077
-0.167093
-0.158539
-0.144221
-0.122039
-0.0926218
-0.0626852
-0.0414215
-0.0319267
-0.0290608
-0.0261453
-0.0209379
-0.0154467
-0.0125754
-0.0143804
-0.0203713
-0.027604
-0.0324476
-0.0334649
-0.0318637
-0.0280092
-0.0202727
-0.00757475
-0.00825796
-0.0213413
-0.0273067
-0.0276369
-0.0256541
-0.0226053
-0.0174889
-0.0105093
-0.00390012
-0.000701931
-0.00290735
-0.00994557
-0.0187473
-0.0258262
-0.0321788
-0.0438407
-0.0659743
-0.0956586
-0.124288
-0.14585
-0.159475
-0.166631
-0.167627
-0.164296
-0.158615
-0.148943
-0.132153
-0.10819
-0.0804594
-0.0526895
-0.0276204
-0.00829279
0.00242544
0.00585256
0.00433823
-0.000943453
-0.00819621
-0.015577
-0.0228009
-0.0291605
-0.0341024
-0.0376637
-0.039449
-0.0397386
-0.0396434
-0.0394412
-0.0393985
-0.0402022
-0.0412442
-0.0416301
-0.0416301
-0.0412441
-0.0402018
-0.0393979
-0.0394406
-0.0396432
-0.0397389
-0.0394498
-0.0376647
-0.034103
-0.0291606
-0.0228004
-0.0155764
-0.00819579
-0.000943062
0.00433895
0.00585399
0.00242784
-0.0082897
-0.0276176
-0.052688
-0.0804597
-0.108193
-0.132157
-0.148949
-0.15862
-0.164301
-0.167632
-0.166635
-0.159477
-0.145851
-0.124288
-0.0956564
-0.0659703
-0.0438357
-0.0321739
-0.0258226
-0.0187451
-0.00994492
-0.00290787
-0.000703245
-0.00390212
-0.0105121
-0.0174924
-0.0226088
-0.0256565
-0.0276377
-0.0273059
-0.0213401
-0.00825741
-0.00755683
-0.0187036
-0.0215357
-0.0176997
-0.011522
-0.00537622
0.0014417
0.0094521
0.0173114
0.0217423
0.0194497
0.00987358
-0.00352674
-0.0158026
-0.0266533
-0.0413178
-0.0647649
-0.0942224
-0.121934
-0.142799
-0.155748
-0.161605
-0.160784
-0.155778
-0.148943
-0.138498
-0.121282
-0.097872
-0.0715567
-0.045429
-0.0221213
-0.00448785
0.00514858
0.00822769
0.0066995
0.00122588
-0.00659196
-0.0146361
-0.0225207
-0.0293432
-0.0341688
-0.0371859
-0.0386337
-0.0390129
-0.0393558
-0.0397374
-0.0400978
-0.0409087
-0.0416539
-0.0417336
-0.041734
-0.0416546
-0.0409092
-0.0400978
-0.0397368
-0.0393549
-0.0390122
-0.0386338
-0.0371867
-0.0341699
-0.0293439
-0.0225208
-0.0146357
-0.00659133
0.00122636
0.00669979
0.00822821
0.00514991
-0.00448549
-0.0221184
-0.0454264
-0.0715552
-0.0978725
-0.121285
-0.138502
-0.148949
-0.155784
-0.16079
-0.16161
-0.155753
-0.142802
-0.121935
-0.0942216
-0.0647619
-0.0413132
-0.0266484
-0.0157984
-0.00352357
0.00987566
0.0194508
0.0217424
0.0173104
0.00944973
0.00143815
-0.00538002
-0.0115247
-0.0177005
-0.0215349
-0.0187023
-0.00755621
-0.00529638
-0.0119259
-0.0102442
-0.00192324
0.00839374
0.0178205
0.0268111
0.0362003
0.045075
0.0498235
0.0461893
0.0329968
0.0143881
-0.0032669
-0.0184922
-0.035812
-0.0599386
-0.0883303
-0.114312
-0.133789
-0.145562
-0.149779
-0.146912
-0.140102
-0.132153
-0.121282
-0.10447
-0.082808
-0.0590916
-0.0354671
-0.0142575
0.00183064
0.0107273
0.0136378
0.0120026
0.0059865
-0.0028159
-0.0116839
-0.019998
-0.0269648
-0.0316131
-0.0343859
-0.0360997
-0.0372912
-0.0386139
-0.0397309
-0.0402977
-0.0407621
-0.0408804
-0.0404595
-0.0404599
-0.0408812
-0.0407629
-0.0402982
-0.0397308
-0.0386131
-0.0372901
-0.036099
-0.034386
-0.0316139
-0.026966
-0.019999
-0.0116842
-0.00281546
0.00598722
0.0120032
0.0136382
0.010728
0.00183196
-0.0142553
-0.0354643
-0.059089
-0.0828067
-0.104471
-0.121285
-0.132157
-0.140107
-0.146918
-0.149785
-0.145567
-0.133793
-0.114314
-0.0883309
-0.0599369
-0.0358084
-0.0184877
-0.00326249
0.0143921
0.0330004
0.0461922
0.0498254
0.0450754
0.0361989
0.0268081
0.017817
0.00839126
-0.00192392
-0.0102433
-0.0119246
-0.00529577
-0.00193908
-0.00233779
0.00448826
0.0169271
0.0306205
0.0427681
0.0536892
0.064224
0.0734814
0.0774323
0.0712572
0.0537415
0.0300595
0.00795298
-0.0102084
-0.0285272
-0.0516203
-0.0773929
-0.100414
-0.117598
-0.127646
-0.12996
-0.125032
-0.116682
-0.10819
-0.097872
-0.082808
-0.064198
-0.0439519
-0.0231413
-0.00378201
0.0112427
0.0196523
0.0221952
0.0199964
0.0130796
0.0032798
-0.00607083
-0.0142968
-0.0210895
-0.0257795
-0.0289718
-0.0316045
-0.0338729
-0.0359938
-0.0374195
-0.0378491
-0.0379531
-0.037733
-0.0371032
-0.0371033
-0.0377332
-0.0379535
-0.0378497
-0.03742
-0.0359938
-0.0338722