/*--------------------------------*- C++ -*----------------------------------*\
  =========                 |
  \\      /  F ield         | OpenFOAM: The Open Source CFD Toolbox
   \\    /   O peration     | Website:  https://openfoam.org
    \\  /    A nd           | Version:  10
     \\/     M anipulation  |
\*---------------------------------------------------------------------------*/
FoamFile
{
    format      ascii;
    class       volScalarField;
    location    "67";
    object      h;
}
// * * * * * * * * * * * * * * * * * * * * * * * * * * * * * * * * * * * * * //

dimensions      [0 1 0 0 0 0 0];

internalField   nonuniform List<scalar> 
10000
(
0.000330025
0.000750902
0.000643186
8.95969e-05
-0.000517191
-0.000733216
-0.00039796
0.000230582
0.000740743
0.000998351
0.00112396
0.00123454
0.00137286
0.00152334
0.00147189
0.000804661
-0.000656427
-0.00260261
-0.00450609
-0.00599888
-0.00681402
-0.00660085
-0.00512253
-0.00257399
0.00055893
0.00387699
0.00705503
0.00966433
0.0112548
0.0116369
0.0109712
0.00957891
0.00763831
0.00516219
0.00226333
-0.000704432
-0.00324652
-0.0048331
-0.00516818
-0.0044637
-0.00333066
-0.00244847
-0.00213538
-0.00212314
-0.00193456
-0.00136675
-0.000596343
1.86652e-06
0.000245674
0.00027854
0.000278568
0.000245746
1.95242e-06
-0.000596276
-0.00136672
-0.00193457
-0.00212319
-0.00213547
-0.00244862
-0.0033309
-0.00446403
-0.0051686
-0.00483357
-0.00324698
-0.000704779
0.00226322
0.00516243
0.00763893
0.00957985
0.0109723
0.011638
0.0112557
0.00966491
0.00705529
0.00387694
0.00055858
-0.00257464
-0.00512347
-0.00660198
-0.0068152
-0.00599988
-0.00450667
-0.00260258
-0.000655839
0.000805517
0.00147259
0.00152361
0.00137273
0.00123434
0.00112404
0.000998798
0.000741263
0.000230691
-0.000398515
-0.00073416
-0.000517867
8.97342e-05
0.000644116
0.000752001
0.000330508
0.000750902
0.001715
0.00149242
0.000249786
-0.00114425
-0.00165495
-0.000865894
0.000645742
0.00192606
0.00270294
0.00324666
0.00370788
0.00407245
0.00430611
0.00392029
0.00186128
-0.00232675
-0.00779271
-0.0131052
-0.0172787
-0.0195616
-0.0189073
-0.0145834
-0.00712457
0.00206644
0.0118152
0.0211479
0.0287862
0.033405
0.0344686
0.0324879
0.0284362
0.0228326
0.0156698
0.00721261
-0.00154734
-0.00914948
-0.0139837
-0.0151145
-0.01312
-0.00979903
-0.00718661
-0.00625956
-0.00625282
-0.00575236
-0.00412497
-0.00185945
-5.1453e-05
0.000737392
0.000884745
0.000884777
0.000737479
-5.13319e-05
-0.00185933
-0.00412487
-0.00575231
-0.00625286
-0.00625976
-0.00718706
-0.00979981
-0.0131211
-0.0151158
-0.0139851
-0.00915076
-0.00154823
0.0072124
0.0156705
0.0228343
0.0284388
0.032491
0.0344718
0.0334077
0.0287881
0.0211487
0.011815
0.00206536
-0.00712654
-0.0145862
-0.0189106
-0.0195649
-0.0172815
-0.0131068
-0.00779273
-0.00232529
0.00186348
0.0039222
0.004307
0.0040724
0.00370759
0.00324687
0.00270387
0.0019271
0.000645848
-0.000867249
-0.00165712
-0.00114577
0.000250134
0.00149455
0.0017175
0.000752
0.000643186
0.00149242
0.00138318
0.00038976
-0.000824706
-0.00129687
-0.000508605
0.00107354
0.00257731
0.00388159
0.0052095
0.00631408
0.00681191
0.00666263
0.0054313
0.00185092
-0.00462408
-0.0127706
-0.0206073
-0.0268047
-0.0302377
-0.029178
-0.0223451
-0.0104877
0.00420565
0.0198283
0.0347573
0.046906
0.0541709
0.0557654
0.0526012
0.0462856
0.0376127
0.0264545
0.013081
-0.0010229
-0.0134917
-0.0216268
-0.0237906
-0.0208108
-0.0155706
-0.0113981
-0.00992966
-0.0099847
-0.00927881
-0.00672975
-0.00307097
-5.05274e-05
0.0013778
0.00172599
0.00172597
0.00137776
-5.05151e-05
-0.00307086
-0.00672958
-0.00927863
-0.00998464
-0.00992991
-0.0113989
-0.015572
-0.0208128
-0.0237928
-0.021629
-0.0134936
-0.00102407
0.0130809
0.0264557
0.0376153
0.0462895
0.052606
0.0557705
0.0541754
0.0469093
0.034759
0.0198282
0.00420389
-0.010491
-0.0223495
-0.0291831
-0.0302426
-0.0268087
-0.0206097
-0.0127709
-0.0046225
0.00185357
0.00543388
0.00666434
0.00681269
0.00631439
0.00520987
0.00388221
0.00257781
0.00107325
-0.000510002
-0.00129877
-0.000825897
0.000390181
0.00138506
0.00149455
0.000644114
8.95969e-05
0.000249786
0.00038976
0.00037615
0.000151068
7.43308e-05
0.000605209
0.00169198
0.00302236
0.00484188
0.00718594
0.00912032
0.00967878
0.00880452
0.00635702
0.00123401
-0.00701379
-0.0169525
-0.0263999
-0.0339482
-0.0382208
-0.0368622
-0.0280242
-0.012532
0.00680285
0.0273954
0.0469992
0.0628394
0.0722294
0.0742649
0.0702585
0.0623325
0.0514225
0.0371853
0.0197905
0.00109046
-0.0157345
-0.0269792
-0.030339
-0.0267951
-0.0201378
-0.0147969
-0.0129639
-0.0131193
-0.0122447
-0.00886454
-0.003927
0.000253869
0.00235813
0.0029569
0.00295684
0.00235803
0.000253853
-0.00392684
-0.00886427
-0.0122445
-0.0131193
-0.0129643
-0.0147981
-0.0201397
-0.0267977
-0.0303419
-0.026982
-0.0157368
0.00108914
0.0197905
0.037187
0.0514259
0.0623373
0.0702645
0.0742713
0.0722353
0.0628439
0.0470016
0.0273954
0.00680063
-0.0125362
-0.0280299
-0.0368685
-0.0382268
-0.0339529
-0.0264029
-0.0169535
-0.0070129
0.00123622
0.00635972
0.00880709
0.0096809
0.00912177
0.00718656
0.00484173
0.00302174
0.00169119
0.000604458
7.38686e-05
0.000151025
0.000376444
0.000390181
0.000250134
8.97327e-05
-0.000517191
-0.00114425
-0.000824706
0.000151068
0.00104311
0.0015688
0.0020306
0.0027175
0.00385477
0.00602279
0.009096
0.0115784
0.0120288
0.0103743
0.00677824
0.000434321
-0.00892857
-0.0197712
-0.0299229
-0.0380577
-0.0426743
-0.0409551
-0.0305873
-0.0123783
0.0104392
0.0347279
0.0577272
0.0761813
0.0870695
0.089493
0.0851004
0.0763419
0.0641388
0.0478626
0.0275039
0.00515007
-0.0153361
-0.0293892
-0.0341215
-0.0305632
-0.0231752
-0.0172201
-0.0152941
-0.0156292
-0.0146508
-0.0105713
-0.00451843
0.000736815
0.00354477
0.00444694
0.00444685
0.00354464
0.000736844
-0.00451815
-0.0105709
-0.0146506
-0.0156294
-0.015295
-0.0172217
-0.0231775
-0.0305661
-0.0341248
-0.0293923
-0.0153386
0.00514864
0.027504
0.0478646
0.0641427
0.0763475
0.0851071
0.0895001
0.0870762
0.0761865
0.0577301
0.0347283
0.010437
-0.0123829
-0.0305935
-0.040962
-0.0426808
-0.0380629
-0.0299265
-0.0197731
-0.00892879
0.000435594
0.00678061
0.0103774
0.0120319
0.0115809
0.00909694
0.00602214
0.00385339
0.00271651
0.00203065
0.00156974
0.00104403
0.000151024
-0.000825898
-0.00114577
-0.000517868
-0.000733216
-0.00165495
-0.00129687
7.43308e-05
0.0015688
0.00268207
0.00355289
0.00443058
0.00561762
0.00777025
0.0107631
0.0130229
0.0130382
0.0107648
0.00649871
-0.000376429
-0.0100081
-0.0208372
-0.0307911
-0.0386678
-0.0429594
-0.0406524
-0.0291903
-0.00930474
0.0156138
0.0421031
0.0670718
0.0870078
0.0987728
0.101547
0.097233
0.0884459
0.0759752
0.0588448
0.0367425
0.0117928
-0.0116302
-0.0282361
-0.03459
-0.0316181
-0.0241955
-0.0181715
-0.0164464
-0.0171304
-0.0162637
-0.0117712
-0.00485692
0.00139124
0.00499917
0.00632057
0.00632042
0.00499889
0.00139118
-0.0048566
-0.0117708
-0.0162635
-0.0171309
-0.0164476
-0.0181735
-0.0241982
-0.0316213
-0.0345933
-0.0282392
-0.0116326
0.0117915
0.0367428
0.0588471
0.0759795
0.0884518
0.09724
0.101555
0.0987796
0.0870132
0.067075
0.0421038
0.015612
-0.00930887
-0.0291962
-0.0406591
-0.0429658
-0.0386732
-0.0307953
-0.0208401
-0.0100094
-0.00037623
0.00650035
0.0107676
0.0130414
0.0130257
0.0107644
0.00776994
0.00561659
0.00443001
0.00355341
0.00268334
0.00156973
7.38661e-05
-0.00129877
-0.00165712
-0.00073416
-0.00039796
-0.000865894
-0.000508605
0.000605209
0.0020306
0.00355289
0.00521386
0.00686086
0.00837286
0.0101768
0.0122978
0.0135949
0.012925
0.0103317
0.00604871
-0.000527717
-0.00955495
-0.0195749
-0.0286618
-0.035705
-0.0392485
-0.0363287
-0.0243645
-0.0039435
0.0216706
0.0489345
0.0745915
0.0950453
0.107194
0.11034
0.106561
0.0985243
0.0868132
0.070054
0.0474989
0.0210972
-0.00444675
-0.0232511
-0.031369
-0.0294824
-0.0226375
-0.0170402
-0.0158078
-0.0170535
-0.0165873
-0.0120502
-0.00459151
0.00253226
0.00702221
0.00887701
0.00887676
0.0070217
0.002532
-0.00459128
-0.0120497
-0.0165872
-0.0170542
-0.0158094
-0.0170427
-0.0226405
-0.0294857
-0.0313723
-0.0232539
-0.00444873
0.0210964
0.0474996
0.0700565
0.0868175
0.09853
0.106568
0.110347
0.107201
0.0950506
0.0745949
0.0489356
0.0216695
-0.00394669
-0.0243694
-0.0363345
-0.0392544
-0.0357103
-0.0286664
-0.0195787
-0.00955743
-0.000528698
0.00604916
0.0103333
0.0129273
0.0135973
0.0122995
0.0101777
0.00837329
0.00686129
0.00521443
0.00355341
0.00203065
0.000604456
-0.000510002
-0.000867248
-0.000398515
0.000230582
0.000645742
0.00107354
0.00169198
0.0027175
0.00443058
0.00686086
0.00940151
0.0113523
0.0127508
0.0137913
0.0139837
0.0127566
0.0102593
0.0065763
0.00104298
-0.00662025
-0.0152189
-0.0230588
-0.0290755
-0.0318553
-0.0286246
-0.0169091
0.00293337
0.0279943
0.0548155
0.080076
0.100234
0.11237
0.115937
0.113096
0.106435
0.0962797
0.0808722
0.0589935
0.0322854
0.00559796
-0.0148063
-0.0246097
-0.0241936
-0.0185386
-0.013922
-0.013526
-0.0155447
-0.0157225
-0.0114762
-0.00382068
0.00395289
0.00926271
0.0116657
0.0116653
0.00926204
0.00395249
-0.00382051
-0.0114758
-0.0157226
-0.0155457
-0.013528
-0.0139247
-0.0185417
-0.0241967
-0.0246126
-0.0148085
0.00559663
0.0322853
0.0589947
0.0808749
0.0962837
0.10644
0.113102
0.115943
0.112376
0.100239
0.0800793
0.054817
0.0279941
0.00293146
-0.0169125
-0.0286289
-0.03186
-0.0290804
-0.0230635
-0.0152233
-0.00662381
0.00104062
0.00657516
0.0102592
0.0127575
0.0139853
0.0137934
0.0127532
0.0113545
0.00940303
0.00686129
0.00443001
0.00271651
0.00169119
0.00107325
0.000645849
0.000230691
0.000740743
0.00192606
0.00257731
0.00302236
0.00385477
0.00561762
0.00837286
0.0113523
0.0135548
0.0146918
0.0150274
0.0146038
0.0133312
0.0114148
0.00882365
0.00489768
-0.00080648
-0.00751587
-0.0138731
-0.0188288
-0.0209779
-0.0178105
-0.00703535
0.0112837
0.0347382
0.0600592
0.0839536
0.103096
0.114899
0.11897
0.117397
0.11252
0.10438
0.0909357
0.0705799
0.0446017
0.0178033
-0.00345744
-0.0147201
-0.0160761
-0.0122124
-0.00916422
-0.00999375
-0.0130213
-0.0140864
-0.0104715
-0.00300732
0.00509968
0.0110523
0.0139396
0.0139392
0.0110516
0.00509919
-0.00300721
-0.0104712
-0.0140867
-0.0130227
-0.00999629
-0.0091673
-0.0122154
-0.0160788
-0.0147223
-0.0034589
0.0178027
0.0446022
0.0705815
0.0909384
0.104384
0.112525
0.117402
0.118975
0.114903
0.1031
0.0839566
0.060061
0.0347389
0.0112833
-0.00703677
-0.0178129
-0.020981
-0.0188326
-0.0138775
-0.00752062
-0.000811043
0.00489381
0.00882075
0.011413
0.0133307
0.0146047
0.0150296
0.014695
0.013558
0.0113545
0.00837329
0.00561659
0.00385339
0.00302174
0.00257781
0.0019271
0.000741262
0.000998351
0.00270294
0.00388159
0.00484188
0.00602279
0.00777025
0.0101768
0.0127508
0.0146918
0.0156141
0.0157603
0.0154459
0.0148139
0.0140068
0.0129224
0.0109897
0.00759328
0.00298707
-0.00185207
-0.00583558
-0.00753195
-0.00475417
0.00453528
0.0205949
0.0416104
0.0645999
0.0864089
0.104074
0.115434
0.120187
0.12016
0.117303
0.111403
0.100279
0.0820551
0.0576488
0.0316355
0.0102127
-0.00221251
-0.0054687
-0.00378265
-0.00272336
-0.00511715
-0.00944824
-0.0117522
-0.00921045
-0.00238891
0.00570091
0.0120968
0.0153927
0.0153923
0.0120959
0.00570025
-0.00238896
-0.00921033
-0.0117528
-0.00945007
-0.00512005
-0.00272659
-0.00378549
-0.00547079
-0.00221378
0.0102122
0.0316357
0.0576498
0.0820569
0.100282
0.111406
0.117306
0.120163
0.12019
0.115437
0.104077
0.0864112
0.0646019
0.041612
0.0205962
0.00453603
-0.00475425
-0.00753309
-0.00583797
-0.00185576
0.00298229
0.007588
0.0109845
0.0129179
0.0140034
0.014812
0.0154458
0.015762
0.0156171
0.014695
0.0127532
0.0101777
0.00776994
0.00602215
0.00484173
0.00388221
0.00270387
0.000998797
0.00112396
0.00324666
0.0052095
0.00718594
0.009096
0.0107631
0.0122978
0.0137913
0.0150274
0.0157603
0.0162108
0.0167785
0.0175888
0.0185448
0.0194164
0.0197082
0.0186095
0.0158416
0.0120648
0.00852462
0.0067526
0.00860775
0.0158483
0.0290709
0.0470967
0.0672878
0.086691
0.102767
0.113787
0.119448
0.121165
0.120429
0.116834
0.108194
0.0924776
0.0702529
0.0457552
0.0248417
0.0117085
0.00671759
0.00616441
0.0050618
0.000879188
-0.00503927
-0.00895997
-0.0079597
-0.00226324
0.00540199
0.0119633
0.0155344
0.0155339
0.0119622
0.00540113
-0.00226355
-0.00795989
-0.00896086
-0.00504138
0.000876156
0.00505869
0.00616201
0.00671625
0.0117082
0.0248421
0.0457562
0.0702544
0.0924796
0.108196
0.116837
0.120431
0.121167
0.119449
0.113788
0.102769
0.0866924
0.0672896
0.0470991
0.0290739
0.0158512
0.0086099
0.00675335
0.00852359
0.0120619
0.0158371
0.018604
0.0197024
0.0194108
0.0185402
0.0175856
0.0167772
0.0162112
0.015762
0.0150296
0.0137934
0.0122995
0.0107644
0.00909694
0.00718656
0.00520987
0.00324687
0.00112404
0.00123454
0.00370788
0.00631408
0.00912032
0.0115784
0.0130229
0.0135949
0.0139837
0.0146038
0.0154459
0.0167785
0.0190281
0.0221269
0.0255483
0.0288038
0.0313888
0.032276
0.0307015
0.0271183
0.0230617
0.0202879
0.0204422
0.0250847
0.0351609
0.0500583
0.0674061
0.0844048
0.0989281
0.109674
0.116311
0.119771
0.121039
0.119565
0.11327
0.100114
0.0804191
0.0580356
0.0383207
0.0250725
0.0186974
0.016004
0.0126715
0.00654351
-0.0011665
-0.00697042
-0.0078816
-0.00378028
0.00294499
0.00921628
0.0127951
0.0127946
0.00921522
0.00294402
-0.00378085
-0.00788215
-0.0069717
-0.00116887
0.00654046
0.0126686
0.0160022
0.0186969
0.0250731
0.0383219
0.0580372
0.080421
0.100116
0.113272
0.119567
0.12104
0.119772
0.116311
0.109673
0.098928
0.0844052
0.0674077
0.0500614
0.0351652
0.0250894
0.0204462
0.0202903
0.023062
0.0271165
0.030698
0.0322712
0.0313831
0.0287979
0.0255429
0.0221226
0.0190253
0.0167772
0.0154458
0.0146047
0.0139853
0.0135973
0.0130257
0.0115809
0.00912177
0.00631439
0.00370759
0.00123434
0.00137286
0.00407245
0.00681191
0.00967878
0.0120288
0.0130382
0.012925
0.0127566
0.0133312
0.0148139
0.0175888
0.0221269
0.0280746
0.0343514
0.0401214
0.0448212
0.0472288
0.0461593
0.0419188
0.0363883
0.031669
0.0293995
0.0311182
0.0381197
0.0501785
0.0649882
0.0797765
0.0927965
0.103211
0.11071
0.115725
0.118692
0.118943
0.114605
0.103806
0.0867703
0.066941
0.0490209
0.0362208
0.028834
0.0241506
0.0185809
0.0104189
0.000800935
-0.00704317
-0.0101388
-0.00807233
-0.00286207
0.00255023
0.00577981
0.00577939
0.00254924
-0.00286308
-0.00807313
-0.0101398
-0.0070448
0.000798378
0.010416
0.0185785
0.0241495
0.0288344
0.0362222
0.0490228
0.066943
0.0867724
0.103809
0.114607
0.118944
0.118693
0.115724
0.110709
0.103209
0.0927951
0.0797762
0.0649897
0.0501819
0.0381247
0.0311239
0.0294048
0.0316728
0.0363901
0.0419186
0.0461572
0.0472251
0.0448163
0.0401157
0.0343456
0.0280694
0.0221226
0.0175856
0.014812
0.0133307
0.0127575
0.0129273
0.0130414
0.0120319
0.0096809
0.00681269
0.0040724
0.00137273
0.00152334
0.00430611
0.00666263
0.00880452
0.0103743
0.0107648
0.0103317
0.0102593
0.0114148
0.0140068
0.0185448
0.0255483
0.0343514
0.0433106
0.0512499
0.0575527
0.0608597
0.0596467
0.0540923
0.0463884
0.0390257
0.033824
0.0324936
0.0366916
0.0464086
0.0592095
0.0722136
0.0839765
0.0941174
0.102392
0.108752
0.113098
0.114679
0.111906
0.103201
0.0887987
0.0717388
0.0559948
0.0441005
0.0361307
0.0297828
0.0221717
0.0120457
0.000505132
-0.0094628
-0.0149487
-0.0153042
-0.0121632
-0.00818854
-0.00568256
-0.00568293
-0.00818946
-0.0121642
-0.0153053
-0.01495
-0.0094647
0.000502581
0.0120431
0.0221699
0.0297825
0.0361319
0.0441027
0.0559972
0.0717411
0.0888007
0.103202
0.111908
0.11468
0.113098
0.10875
0.102389
0.0941144
0.0839742
0.0722128
0.0592109
0.0464121
0.0366967
0.0324995
0.0338297
0.0390305
0.0463918
0.054094
0.0596465
0.0608576
0.0575488
0.0512448
0.0433049
0.0343456
0.0255429
0.0185402
0.0140034
0.011413
0.0102592
0.0103333
0.0107676
0.0103774
0.00880709
0.00666434
0.004307
0.00152361
0.00147189
0.00392029
0.0054313
0.00635702
0.00677824
0.00649871
0.00604871
0.0065763
0.00882365
0.0129224
0.0194164
0.0288038
0.0401214
0.0512499
0.0607134
0.0678215
0.0711407
0.0689619
0.0614289
0.0509982
0.0404991
0.0320009
0.0275096
0.0290818
0.0368697
0.0482455
0.0601233
0.0711922
0.0813751
0.0904621
0.097987
0.103409
0.105974
0.104422
0.0975235
0.0856027
0.0713327
0.0579865
0.0474268
0.0394299
0.0319685
0.0227473
0.0109263
-0.00238606
-0.0144083
-0.0223509
-0.0254207
-0.024874
-0.0229373
-0.0215589
-0.0215592
-0.0229381
-0.0248751
-0.0254221
-0.0223526
-0.0144104
-0.00238844
0.0109243
0.0227462
0.031969
0.0394318
0.0474294
0.0579892
0.071335
0.0856047
0.0975251
0.104423
0.105974
0.103408
0.0979846
0.0904587
0.0813714
0.0711894
0.0601222
0.0482466
0.0368727
0.0290862
0.0275149
0.0320066
0.0405045
0.0510029
0.0614323
0.0689635
0.0711403
0.0678189
0.0607093
0.0512448
0.0401157
0.0287979
0.0194108
0.0129179
0.00882075
0.00657516
0.00604916
0.00650035
0.00678062
0.00635972
0.00543388
0.0039222
0.00147259
0.000804661
0.00186128
0.00185092
0.00123401
0.000434321
-0.000376429
-0.000527717
0.00104298
0.00489768
0.0109897
0.0197082
0.0313888
0.0448212
0.0575527
0.0678215
0.0747776
0.0769777
0.0727845
0.062524
0.0489249
0.0350557
0.0231785
0.015585
0.0147153
0.0208957
0.0313658
0.0428117
0.0538594
0.0645011
0.0744773
0.0829738
0.0891294
0.0922716
0.091518
0.0860403
0.0763412
0.0647988
0.0540338
0.0452384
0.037797
0.0298064
0.0194529
0.00629904
-0.00847082
-0.0222612
-0.0325136
-0.0384451
-0.0409681
-0.0416891
-0.0418743
-0.0418744
-0.0416897
-0.0409691
-0.0384466
-0.0325157
-0.0222635
-0.00847299
0.00629759
0.0194527
0.0298077
0.0377993
0.0452413
0.0540365
0.0648011
0.0763429
0.0860415
0.0915186
0.0922711
0.0891275
0.0829707
0.0744734
0.0644971
0.0538564
0.0428104
0.0313663
0.0208979
0.0147188
0.0155895
0.0231838
0.0350615
0.0489305
0.0625287
0.0727877
0.0769789
0.0747768
0.0678189
0.0575488
0.0448163
0.0313831
0.0197024
0.0109845
0.00489382
0.00104062
-0.000528699
-0.00037623
0.000435595
0.00123622
0.00185357
0.00186348
0.000805516
-0.000656427
-0.00232675
-0.00462408
-0.00701379
-0.00892857
-0.0100081
-0.00955495
-0.00662025
-0.00080648
0.00759328
0.0186095
0.032276
0.0472288
0.0608597
0.0711407
0.0769777
0.0769924
0.0698828
0.0563772
0.03951
0.0225165
0.00775128
-0.00235176
-0.00513476
-0.000140763
0.00985148
0.0213869
0.0329338
0.0443781
0.0553283
0.0646543
0.0712409
0.0745495
0.0741331
0.0696559
0.0618912
0.0529761
0.0449014
0.0381805
0.0317337
0.0236694
0.0125825
-0.00154318
-0.0173732
-0.0324988
-0.0447359
-0.0534962
-0.0594058
-0.0632828
-0.0653993
-0.0653993
-0.063283
-0.0594066
-0.0534978
-0.0447381
-0.0325012
-0.017375
-0.00154401
0.012583
0.0236712
0.0317364
0.0381834
0.044904
0.0529781
0.0618926
0.0696567
0.0741331
0.0745483
0.0712384
0.0646508
0.0553242
0.0443742
0.0329308
0.0213854
0.0098515
-0.000139427
-0.00513229
-0.00234812
0.00775606
0.022522
0.0395157
0.0563824
0.0698871
0.0769953
0.0769789
0.0711403
0.0608576
0.0472251
0.0322712
0.018604
0.007588
-0.000811042
-0.00662381
-0.00955743
-0.0100094
-0.00892879
-0.0070129
-0.00462251
-0.00232529
-0.000655841
-0.00260261
-0.00779271
-0.0127706
-0.0169525
-0.0197712
-0.0208372
-0.0195749
-0.0152189
-0.00751587
0.00298707
0.0158416
0.0307015
0.0461593
0.0596467
0.0689619
0.0727845
0.0698828
0.0594145
0.0425675
0.022674
0.00314148
-0.0136232
-0.0252384
-0.029109
-0.024772
-0.0149081
-0.00294181
0.00947531
0.0220529
0.0342078
0.0444791
0.0514938
0.0548437
0.0545489
0.0508246
0.0447686
0.0383239
0.0329123
0.0284193
0.0232859
0.0155453
0.00412504
-0.010564
-0.026974
-0.0428889
-0.0566334
-0.0679897
-0.0773694
-0.0846839
-0.0889656
-0.0889655
-0.0846838
-0.07737
-0.0679913
-0.0566357
-0.0428911
-0.0269754
-0.0105641
0.00412624
0.0155475
0.0232887
0.0284221
0.0329146
0.0383255
0.0447695
0.0508249
0.0545484
0.0548421
0.051491
0.0444754
0.0342037
0.0220491
0.0094725
-0.00294338
-0.0149084
-0.0247713
-0.0291073
-0.0252356
-0.0136193
0.00314628
0.0226792
0.0425727
0.0594194
0.0698871
0.0727877
0.0689635
0.0596465
0.0461572
0.030698
0.0158372
0.0029823
-0.00752062
-0.0152233
-0.0195787
-0.0208401
-0.0197731
-0.0169535
-0.0127709
-0.00779273
-0.00260258
-0.00450609
-0.0131052
-0.0206073
-0.0263999
-0.0299229
-0.0307911
-0.0286618
-0.0230588
-0.0138731
-0.00185207
0.0120648
0.0271183
0.0419188
0.0540923
0.0614289
0.062524
0.0563772
0.0425675
0.0226035
2.95464e-05
-0.0215219
-0.039542
-0.051825
-0.0560813
-0.0519618
-0.0419563
-0.0292999
-0.0156955
-0.00163196
0.0120769
0.0236212
0.0313463
0.0349243
0.0348064
0.0317482
0.0271937
0.0229716
0.0200672
0.0178475
0.0142863
0.00726162
-0.00404604
-0.0187971
-0.0351765
-0.0511845
-0.0658005
-0.0793485
-0.0921019
-0.102972
-0.10955
-0.10955
-0.102971
-0.0921023
-0.07935
-0.0658028
-0.0511866
-0.0351774
-0.0187965
-0.00404416
0.00726421
0.014289
0.0178499
0.020069
0.0229727
0.0271942
0.0317481
0.0348054
0.0349223
0.0313433
0.0236176
0.0120731
-0.00163529
-0.015698
-0.0293014
-0.0419569
-0.0519616
-0.0560803
-0.0518231
-0.0395392
-0.0215182
3.3819e-05
0.0226083
0.0425727
0.0563824
0.0625287
0.0614323
0.054094
0.0419186
0.0271165
0.0120619
-0.00185576
-0.0138775
-0.0230635
-0.0286664
-0.0307953
-0.0299265
-0.0264029
-0.0206097
-0.0131068
-0.00450667
-0.00599888
-0.0172787
-0.0268047
-0.0339482
-0.0380577
-0.0386678
-0.035705
-0.0290755
-0.0188288
-0.00583558
0.00852462
0.0230617
0.0363883
0.0463884
0.0509982
0.0489249
0.03951
0.022674
2.95464e-05
-0.0248289
-0.048037
-0.066908
-0.0794231
-0.0837023
-0.0795607
-0.0692398
-0.0557062
-0.0406936
-0.0249106
-0.00941693
0.0036404
0.0123129
0.0162847
0.0163715
0.0138476
0.0105323
0.008231
0.00761581
0.00761584
0.00574302
-0.000320236
-0.0111618
-0.0254803
-0.0411562
-0.0564731
-0.0712301
-0.0864495
-0.102328
-0.116708
-0.125604
-0.125604
-0.116708
-0.102328
-0.0864509
-0.0712323
-0.0564749
-0.0411566
-0.025479
-0.0111594
-0.00031744
0.00574553
0.00761776
0.00761708
0.00823166
0.0105324
0.013847
0.0163701
0.0162823
0.0123098
0.00363692
-0.00942024
-0.0249133
-0.0406956
-0.0557074
-0.0692404
-0.0795608
-0.0837019
-0.079422
-0.0669064
-0.0480346
-0.0248257
3.38192e-05
0.0226792
0.0395157
0.0489305
0.0510029
0.0463918
0.0363901
0.023062
0.0085236
-0.00583796
-0.0188326
-0.0290804
-0.0357103
-0.0386732
-0.0380629
-0.0339529
-0.0268087
-0.0172815
-0.00599988
-0.00681402
-0.0195616
-0.0302377
-0.0382208
-0.0426743
-0.0429594
-0.0392485
-0.0318553
-0.0209779
-0.00753195
0.0067526
0.0202879
0.031669
0.0390257
0.0404991
0.0350557
0.0225165
0.00314148
-0.0215219
-0.048037
-0.0724106
-0.0917679
-0.104248
-0.108385
-0.104141
-0.0934612
-0.0790156
-0.0625757
-0.0450766
-0.0278122
-0.0132391
-0.0036091
0.000711719
0.000863127
-0.00134916
-0.00369771
-0.00435684
-0.00292096
-0.000878866
-0.00117511
-0.00630291
-0.016569
-0.0301429
-0.0445707
-0.0584918
-0.0726593
-0.0889017
-0.107398
-0.124941
-0.135971
-0.13597
-0.12494
-0.107398
-0.0889027
-0.0726611
-0.0584931
-0.0445706
-0.0301412
-0.0165663
-0.00630015
-0.0011729
-0.000877396
-0.00292015
-0.00435659
-0.00369801
-0.00135014
0.000861321
0.000709105
-0.00361223
-0.0132422
-0.0278149
-0.0450787
-0.062577
-0.0790164
-0.0934615
-0.104141
-0.108385
-0.104248
-0.091767
-0.0724092
-0.0480346
-0.0215182
0.00314628
0.022522
0.0350615
0.0405045
0.0390305
0.0316728
0.0202903
0.00675336
-0.00753308
-0.020981
-0.03186
-0.0392544
-0.0429658
-0.0426808
-0.0382268
-0.0302426
-0.0195649
-0.0068152
-0.00660085
-0.0189073
-0.029178
-0.0368622
-0.0409551
-0.0406524
-0.0363287
-0.0286246
-0.0178105
-0.00475417
0.00860775
0.0204422
0.0293995
0.033824
0.0320009
0.0231785
0.00775128
-0.0136232
-0.039542
-0.066908
-0.0917679
-0.111148
-0.123371
-0.127367
-0.123173
-0.112357
-0.0972439
-0.0796186
-0.0606057
-0.041701
-0.0256667
-0.0151033
-0.0105006
-0.0104254
-0.0125174
-0.0141171
-0.0133627
-0.0101063
-0.00626682
-0.0052461
-0.00966946
-0.0194791
-0.0322251
-0.0450706
-0.0570397
-0.0699009
-0.086341
-0.106601
-0.126562
-0.139278
-0.139278
-0.126561
-0.1066
-0.0863416
-0.0699021
-0.0570405
-0.04507
-0.0322231
-0.0194764
-0.00966691
-0.00524426
-0.00626575
-0.0101058
-0.0133627
-0.0141177
-0.0125187
-0.0104274
-0.0105032
-0.0151061
-0.0256692
-0.0417029
-0.0606069
-0.0796192
-0.0972441
-0.112357
-0.123172
-0.127366
-0.123371
-0.111148
-0.091767
-0.0669064
-0.0395392
-0.0136193
0.00775606
0.0231838
0.0320066
0.0338298
0.0294048
0.0204462
0.00860991
-0.00475425
-0.0178129
-0.0286289
-0.0363345
-0.0406591
-0.0409621
-0.0368685
-0.0291831
-0.0189106
-0.00660198
-0.00512253
-0.0145834
-0.0223451
-0.0280242
-0.0305873
-0.0291903
-0.0243645
-0.0169091
-0.00703535
0.00453528
0.0158483
0.0250847
0.0311182
0.0324936
0.0275096
0.015585
-0.00235176
-0.0252384
-0.051825
-0.0794231
-0.104248
-0.123371
-0.135379
-0.13958
-0.135976
-0.125644
-0.110491
-0.0922442
-0.0721197
-0.0517624
-0.0342638
-0.0226665
-0.0177135
-0.0177695
-0.0199349
-0.0210781
-0.0192307
-0.0144544
-0.00910989
-0.00707672
-0.0110856
-0.0206371
-0.0325779
-0.0436409
-0.0532282
-0.0641096
-0.0798161
-0.100728
-0.122055
-0.135802
-0.135802
-0.122054
-0.100727
-0.0798162
-0.0641101
-0.0532284
-0.0436399
-0.0325758
-0.0206345
-0.0110833
-0.00707521
-0.00910916
-0.0144542
-0.019231
-0.0210788
-0.0199364
-0.0177715
-0.0177159
-0.0226687
-0.0342656
-0.0517635
-0.0721201
-0.0922442
-0.110491
-0.125644
-0.135975
-0.13958
-0.135379
-0.123371
-0.104248
-0.079422
-0.0518231
-0.0252356
-0.00234812
0.0155895
0.0275149
0.0324995
0.0311239
0.0250894
0.0158512
0.00453603
-0.00703677
-0.0169125
-0.0243694
-0.0291962
-0.0305935
-0.0280299
-0.0223495
-0.0145862
-0.00512346
-0.00257399
-0.00712457
-0.0104877
-0.012532
-0.0123783
-0.00930474
-0.0039435
0.00293337
0.0112837
0.0205949
0.0290709
0.0351609
0.0381197
0.0366916
0.0290818
0.0147153
-0.00513476
-0.029109
-0.0560813
-0.0837023
-0.108385
-0.127367
-0.13958
-0.144675
-0.142513
-0.133611
-0.1194
-0.101443
-0.0809112
-0.0595117
-0.0406715
-0.0279774
-0.022609
-0.0229019
-0.0254812
-0.0266796
-0.0242922
-0.0184956
-0.0120764
-0.00939145
-0.0132465
-0.0226575
-0.0337575
-0.0428764
-0.0497917
-0.0581825
-0.0723069
-0.0927104
-0.114216
-0.128229
-0.128228
-0.114215
-0.0927096
-0.0723065
-0.0581824
-0.0497913
-0.042875
-0.0337553
-0.0226549
-0.0132443
-0.00939015
-0.0120759
-0.0184957
-0.0242927
-0.0266806
-0.0254827
-0.0229037
-0.0226108
-0.0279788
-0.0406724
-0.059512
-0.080911
-0.101443
-0.119399
-0.13361
-0.142512
-0.144675
-0.13958
-0.127366
-0.108385
-0.0837019
-0.0560803
-0.0291073
-0.00513228
0.0147188
0.0290863
0.0366967
0.0381247
0.0351652
0.0290739
0.0205962
0.0112833
0.00293146
-0.0039467
-0.00930887
-0.0123829
-0.0125362
-0.010491
-0.00712653
-0.00257463
0.00055893
0.00206644
0.00420565
0.00680285
0.0104392
0.0156138
0.0216706
0.0279943
0.0347382
0.0416104
0.0470967
0.0500583
0.0501785
0.0464086
0.0368697
0.0208957
-0.000140763
-0.024772
-0.0519618
-0.0795607
-0.104141
-0.123173
-0.135976
-0.142513
-0.142486
-0.135865
-0.123595
-0.106974
-0.0869744
-0.0652373
-0.0454541
-0.0317983
-0.026064
-0.0267675
-0.0301699
-0.0320412
-0.0298293
-0.0237219
-0.0168579
-0.0139916
-0.0179364
-0.0272262
-0.0373786
-0.0444481
-0.0485984
-0.0542445
-0.0661464
-0.0849782
-0.105475
-0.118959
-0.118958
-0.105474
-0.0849774
-0.0661457
-0.0542438
-0.0485974
-0.0444464
-0.0373762
-0.0272238
-0.0179345
-0.0139905
-0.0168576
-0.0237222
-0.02983
-0.0320423
-0.0301712
-0.026769
-0.0260652
-0.031799
-0.0454542
-0.065237
-0.0869737
-0.106973
-0.123594
-0.135864
-0.142486
-0.142512
-0.135975
-0.123172
-0.104141
-0.0795608
-0.0519616
-0.0247713
-0.000139423
0.0208979
0.0368728
0.0464121
0.0501819
0.0500614
0.0470991
0.041612
0.0347389
0.0279941
0.0216695
0.015612
0.010437
0.00680064
0.00420389
0.00206537
0.000558585
0.00387699
0.0118152
0.0198283
0.0273954
0.0347279
0.0421031
0.0489345
0.0548155
0.0600592
0.0645999
0.0672878
0.0674061
0.0649882
0.0592095
0.0482455
0.0313658
0.00985148
-0.0149081
-0.0419563
-0.0692398
-0.0934612
-0.112357
-0.125644
-0.133611
-0.135865
-0.131921
-0.122266
-0.107869
-0.0893674
-0.0681611
-0.0480454
-0.0337244
-0.0277052
-0.0288733
-0.033294
-0.0362602
-0.0348586
-0.0292086
-0.0226671
-0.0202159
-0.0245566
-0.0337631
-0.0429044
-0.0479448
-0.0494386
-0.0523024
-0.0615068
-0.0777891
-0.0961131
-0.108273
-0.108273
-0.0961127
-0.0777885
-0.0615058
-0.0523011
-0.0494369
-0.0479427
-0.042902
-0.0337609
-0.0245549
-0.0202149
-0.0226668
-0.0292089
-0.0348593
-0.0362611
-0.033295
-0.0288742
-0.0277057
-0.0337244
-0.048045
-0.0681604
-0.0893665
-0.107868
-0.122264
-0.13192
-0.135864
-0.13361
-0.125644
-0.112357
-0.0934615
-0.0692404
-0.0419569
-0.0149084
0.00985151
0.0313663
0.0482466
0.0592109
0.0649897
0.0674077
0.0672896
0.0646019
0.060061
0.054817
0.0489356
0.0421038
0.0347283
0.0273954
0.0198282
0.011815
0.00387694
0.00705503
0.0211479
0.0347573
0.0469992
0.0577272
0.0670718
0.0745915
0.080076
0.0839536
0.0864089
0.086691
0.0844048
0.0797765
0.0722136
0.0601233
0.0428117
0.0213869
-0.00294181
-0.0292999
-0.0557062
-0.0790156
-0.0972439
-0.110491
-0.1194
-0.123595
-0.122266
-0.115515
-0.103955
-0.0877741
-0.0679524
-0.0481818
-0.0335492
-0.027265
-0.0287185
-0.0339963
-0.0381129
-0.037889
-0.0333493
-0.0279228
-0.0265937
-0.0317753
-0.0410828
-0.0493092
-0.0525126
-0.0516173
-0.0517746
-0.0578615
-0.0706294
-0.0856118
-0.0956472
-0.0956472
-0.0856116
-0.0706287
-0.0578601
-0.0517726
-0.0516149
-0.0525101
-0.0493069
-0.0410808
-0.0317738
-0.0265929
-0.0279226
-0.0333495
-0.0378894
-0.0381134
-0.0339967
-0.0287187
-0.0272649
-0.0335487
-0.0481811
-0.0679517
-0.0877732
-0.103954
-0.115514
-0.122264
-0.123594
-0.119399
-0.110491
-0.0972441
-0.0790164
-0.0557074
-0.0293014
-0.00294338
0.0213854
0.0428104
0.0601222
0.0722128
0.0797762
0.0844052
0.0866923
0.0864112
0.0839566
0.0800793
0.0745949
0.067075
0.0577302
0.0470016
0.034759
0.0211487
0.00705529
0.00966433
0.0287862
0.046906
0.0628394
0.0761813
0.0870078
0.0950453
0.100234
0.103096
0.104074
0.102767
0.0989281
0.0927965
0.0839765
0.0711922
0.0538594
0.0329338
0.00947531
-0.0156955
-0.0406936
-0.0625757
-0.0796186
-0.0922442
-0.101443
-0.106974
-0.107869
-0.103955
-0.0954995
-0.0821863
-0.0644605
-0.0457178
-0.0312154
-0.0247423
-0.0262453
-0.0320378
-0.0371095
-0.0382024
-0.0353048
-0.0317969
-0.0324046
-0.039026
-0.0487972
-0.0564042
-0.0581666
-0.0553265
-0.0529794
-0.0556108
-0.0639617
-0.0744897
-0.0816378
-0.0816378
-0.0744895
-0.0639609
-0.055609
-0.0529767
-0.0553235
-0.0581638
-0.0564019
-0.0487954
-0.0390248
-0.0324039
-0.0317966
-0.0353048
-0.0382025
-0.0371095
-0.0320377
-0.0262451
-0.0247419