/*--------------------------------*- C++ -*----------------------------------*\
  =========                 |
  \\      /  F ield         | OpenFOAM: The Open Source CFD Toolbox
   \\    /   O peration     | Website:  https://openfoam.org
    \\  /    A nd           | Version:  10
     \\/     M anipulation  |
\*---------------------------------------------------------------------------*/
FoamFile
{
    format      ascii;
    class       volScalarField;
    location    "67";
    object      h_0;
}
// * * * * * * * * * * * * * * * * * * * * * * * * * * * * * * * * * * * * * //

dimensions      [0 1 0 0 0 0 0];

internalField   nonuniform List<scalar> 
10000
(
0.000325676
0.000741396
0.000633769
8.19831e-05
-0.000522592
-0.000735784
-0.00039991
0.000225731
0.00073428
0.000994709
0.00112403
0.00123527
0.00137242
0.00152117
0.00146525
0.000791095
-0.000673212
-0.00261456
-0.00450839
-0.0059912
-0.00679611
-0.00657175
-0.00508472
-0.0025332
0.000598364
0.00391478
0.00709064
0.00969166
0.0112647
0.0116247
0.0109381
0.00952916
0.00757885
0.00510194
0.00221091
-0.000744093
-0.0032749
-0.00485612
-0.0051901
-0.00448347
-0.00334243
-0.00244549
-0.00211658
-0.00209775
-0.00191764
-0.00136834
-0.000612738
-1.32963e-05
0.000246228
0.000293874
0.000293902
0.0002463
-1.32105e-05
-0.000612671
-0.00136831
-0.00191766
-0.0020978
-0.00211667
-0.00244564
-0.00334266
-0.0044838
-0.00519051
-0.00485659
-0.00327536
-0.000744445
0.0022108
0.00510218
0.00757947
0.00953009
0.0109392
0.0116258
0.0112656
0.00969225
0.00709091
0.00391474
0.000598022
-0.00253384
-0.00508565
-0.00657289
-0.00679729
-0.0059922
-0.00450897
-0.00261455
-0.000672632
0.000791948
0.00146595
0.00152144
0.0013723
0.00123508
0.00112412
0.000995155
0.000734796
0.000225837
-0.000400465
-0.000736725
-0.000523266
8.21192e-05
0.000634694
0.000742489
0.000326156
0.000741396
0.00169533
0.00147471
0.000236449
-0.00115258
-0.00165552
-0.000864378
0.000638379
0.00191147
0.00269206
0.00324171
0.00370136
0.00406128
0.00429055
0.00389355
0.00181661
-0.00237859
-0.0078286
-0.0131116
-0.0172555
-0.0195086
-0.0188223
-0.0144741
-0.00700822
0.00217712
0.0119201
0.0212471
0.0288636
0.0334351
0.0344373
0.0323969
0.028296
0.0226626
0.0154965
0.00706236
-0.00165912
-0.00922726
-0.014046
-0.0151751
-0.0131763
-0.00983294
-0.00717657
-0.00620091
-0.00617228
-0.00569506
-0.00412182
-0.00190084
-9.08151e-05
0.000742746
0.000932724
0.000932754
0.00074283
-9.06952e-05
-0.00190071
-0.00412172
-0.00569501
-0.00617232
-0.0062011
-0.00717701
-0.00983371
-0.0131774
-0.0151764
-0.0140474
-0.00922854
-0.00166002
0.00706213
0.0154972
0.0226643
0.0282986
0.0324001
0.0344405
0.0334378
0.0288655
0.021248
0.01192
0.00217606
-0.00701017
-0.0144769
-0.0188256
-0.0195119
-0.0172583
-0.0131133
-0.00782864
-0.00237715
0.0018188
0.00389545
0.00429145
0.00406125
0.00370109
0.00324194
0.00269299
0.0019125
0.000638481
-0.00086573
-0.00165769
-0.00115409
0.000236794
0.00147683
0.00169782
0.000742487
0.000633769
0.00147471
0.00136908
0.000377761
-0.000833812
-0.00129495
-0.000500776
0.00107022
0.00256141
0.00386533
0.00519418
0.00628986
0.00677831
0.00662435
0.00538039
0.00177762
-0.00470358
-0.0128217
-0.0206108
-0.026762
-0.0301498
-0.0290425
-0.0221751
-0.0103111
0.00436892
0.0199798
0.0349002
0.0470185
0.054215
0.0557181
0.0524626
0.0460689
0.0373467
0.0261815
0.0128446
-0.00119725
-0.0136116
-0.0217236
-0.0238879
-0.0209045
-0.0156293
-0.0113841
-0.00983322
-0.00984853
-0.00917709
-0.00671463
-0.00312875
-0.000107133
0.00139114
0.00180687
0.00180685
0.0013911
-0.000107124
-0.00312864
-0.00671445
-0.0091769
-0.00984846
-0.00983345
-0.0113848
-0.0156307
-0.0209064
-0.0238902
-0.0217259
-0.0136135
-0.00119843
0.0128444
0.0261827
0.0373493
0.0460728
0.0524674
0.0557232
0.0542195
0.0470219
0.0349019
0.0199797
0.00436719
-0.0103143
-0.0221795
-0.0290476
-0.0301547
-0.026766
-0.0206133
-0.0128221
-0.00470204
0.00178025
0.00538297
0.00662608
0.00677912
0.00629019
0.00519456
0.00386594
0.00256191
0.00106994
-0.000502164
-0.00129684
-0.000835001
0.000378175
0.00137095
0.00147683
0.000634692
8.19831e-05
0.000236449
0.000377761
0.000357596
0.000127234
6.13602e-05
0.000603718
0.00168377
0.00300288
0.00482048
0.00715939
0.0090758
0.00961987
0.0087434
0.00628884
0.0011486
-0.00709727
-0.0169942
-0.0263799
-0.033872
-0.0380922
-0.0366789
-0.0278037
-0.0123107
0.00699992
0.0275722
0.0471629
0.0629656
0.0722713
0.0741935
0.0700724
0.0620468
0.0510727
0.0368249
0.0194754
0.000853265
-0.0159048
-0.027124
-0.0304886
-0.0269416
-0.0202362
-0.0147943
-0.0128467
-0.0129455
-0.0121149
-0.00884985
-0.00400927
0.000173636
0.00237168
0.00306109
0.00306103
0.00237157
0.000173616
-0.00400911
-0.00884957
-0.0121146
-0.0129455
-0.0128472
-0.0147954
-0.0202381
-0.0269441
-0.0304915
-0.0271268
-0.0159071
0.000851921
0.0194754
0.0368265
0.051076
0.0620517
0.0700783
0.0741999
0.0722773
0.0629702
0.0471653
0.0275723
0.00699775
-0.0123149
-0.0278094
-0.0366853
-0.0380981
-0.0338768
-0.026383
-0.0169952
-0.00709643
0.00115079
0.00629155
0.00874598
0.00962201
0.00907727
0.00716001
0.00482034
0.00300227
0.00168299
0.000602976
6.08976e-05
0.000127182
0.000357881
0.000378175
0.000236794
8.21176e-05
-0.000522592
-0.00115258
-0.000833812
0.000127234
0.00100424
0.00153571
0.00201015
0.00269515
0.00382603
0.00599318
0.00905504
0.0115082
0.011936
0.0102812
0.00668959
0.000345244
-0.00899675
-0.01978
-0.0298588
-0.0379345
-0.0425006
-0.0407304
-0.0303314
-0.012132
0.0106488
0.0349079
0.0578889
0.0762998
0.0870945
0.0893927
0.0848737
0.0760059
0.0637314
0.0474421
0.0271314
0.00486037
-0.0155572
-0.0295893
-0.034333
-0.0307718
-0.0233223
-0.0172392
-0.0151696
-0.0154325
-0.0145056
-0.0105643
-0.0046268
0.000633234
0.00355633
0.00456937
0.00456929
0.00355619
0.000633261
-0.00462651
-0.0105639
-0.0145054
-0.0154328
-0.0151705
-0.0172408
-0.0233246
-0.0307747
-0.0343362
-0.0295924
-0.0155598
0.00485891
0.0271315
0.0474441
0.0637353
0.0760115
0.0848804
0.0893999
0.0871011
0.076305
0.0578918
0.0349083
0.0106466
-0.0121365
-0.0303376
-0.0407373
-0.042507
-0.0379397
-0.0298625
-0.019782
-0.00899702
0.00034649
0.00669196
0.0102843
0.0119392
0.0115107
0.00905599
0.00599255
0.00382466
0.00269418
0.0020102
0.00153663
0.00100515
0.000127181
-0.000835003
-0.00115409
-0.000523267
-0.000735784
-0.00165552
-0.00129495
6.13602e-05
0.00153571
0.00264596
0.00352135
0.00439368
0.00557407
0.00772416
0.0106984
0.0129169
0.0128995
0.0106261
0.00637928
-0.000469987
-0.0100515
-0.0207985
-0.030669
-0.0384893
-0.0427422
-0.0404002
-0.0289238
-0.00906441
0.0158031
0.0422537
0.0672008
0.0870945
0.0987686
0.101421
0.0969829
0.0880879
0.0755454
0.0583999
0.0363436
0.0114737
-0.0118874
-0.0284829
-0.034859
-0.0318877
-0.0243926
-0.0182162
-0.0163198
-0.0169148
-0.0161014
-0.0117625
-0.00497647
0.00127833
0.00501638
0.00646321
0.00646306
0.0050161
0.00127827
-0.00497615
-0.011762
-0.0161012
-0.0169153
-0.016321
-0.0182182
-0.0243953
-0.0318909
-0.0348623
-0.0284859
-0.0118898
0.0114724
0.0363439
0.0584021
0.0755496
0.0880938
0.0969899
0.101428
0.0987754
0.0870999
0.0672041
0.0422545
0.0158014
-0.00906848
-0.0289297
-0.0404069
-0.0427486
-0.0384948
-0.0306733
-0.0208014
-0.0100529
-0.000469821
0.00638089
0.0106288
0.0129028
0.0129197
0.0106997
0.00772388
0.00557306
0.00439312
0.00352187
0.00264722
0.00153663
6.08951e-05
-0.00129684
-0.00165769
-0.000736726
-0.00039991
-0.000864378
-0.000500776
0.000603718
0.00201015
0.00352135
0.00517358
0.00680417
0.00830238
0.0100991
0.0121982
0.0134515
0.0127476
0.0101588
0.00591168
-0.000610771
-0.00955731
-0.0194731
-0.0284687
-0.0354626
-0.0389878
-0.0360617
-0.0241128
-0.00374308
0.0218021
0.0490178
0.0746529
0.095073
0.107147
0.110186
0.106297
0.09816
0.0863801
0.0696048
0.0470917
0.0207625
-0.0047316
-0.0235415
-0.0316975
-0.0298195
-0.0228952
-0.0171241
-0.0156945
-0.0168324
-0.0164148
-0.0120378
-0.0047141
0.00241754
0.00704597
0.00903468
0.00903443
0.00704545
0.00241728
-0.00471386
-0.0120374
-0.0164146
-0.0168331
-0.0156962
-0.0171265
-0.0228982
-0.0298228
-0.0317007
-0.0235443
-0.0047336
0.0207617
0.0470924
0.0696072
0.0863843
0.0981656
0.106303
0.110193
0.107153
0.0950783
0.0746563
0.049019
0.021801
-0.00374622
-0.0241176
-0.0360675
-0.0389937
-0.035468
-0.0284733
-0.0194768
-0.00955982
-0.000611791
0.00591209
0.0101604
0.01275
0.0134539
0.0121999
0.0101
0.00830283
0.0068046
0.00517414
0.00352187
0.0020102
0.000602974
-0.000502164
-0.000865729
-0.000400465
0.000225731
0.000638379
0.00107022
0.00168377
0.00269515
0.00439368
0.00680417
0.00931582
0.0112407
0.0126242
0.0136449
0.0138061
0.0125606
0.0100822
0.00645248
0.000995541
-0.00656499
-0.0150447
-0.0227885
-0.0287633
-0.0315476
-0.028347
-0.0166863
0.00307225
0.0280432
0.0548074
0.0800487
0.100188
0.112271
0.115755
0.112822
0.106074
0.0958575
0.0804356
0.0585942
0.031947
0.00529113
-0.0151401
-0.0250011
-0.0246044
-0.0188664
-0.0140596
-0.0134462
-0.0153403
-0.015558
-0.0114694
-0.00394713
0.00383764
0.00928995
0.0118304
0.0118301
0.00928927
0.00383724
-0.00394695
-0.011469
-0.015558
-0.0153414
-0.0134482
-0.0140623
-0.0188695
-0.0246075
-0.025004
-0.0151423
0.00528978
0.0319468
0.0585954
0.0804382
0.0958615
0.106079
0.112828
0.115761
0.112277
0.100193
0.080052
0.0548089
0.028043
0.00307039
-0.0166896
-0.0283513
-0.0315523
-0.0287681
-0.0227932
-0.0150491
-0.00656858
0.000993135
0.00645129
0.0100822
0.0125614
0.0138077
0.0136471
0.0126266
0.0112429
0.00931734
0.0068046
0.00439312
0.00269417
0.00168299
0.00106994
0.000638481
0.000225837
0.00073428
0.00191147
0.00256141
0.00300288
0.00382603
0.00557407
0.00830238
0.0112407
0.0134
0.0145063
0.0148221
0.0143869
0.0131233
0.0112493
0.00873043
0.00489779
-0.00069121
-0.00727519
-0.0135333
-0.0184507
-0.0206237
-0.0175235
-0.00684677
0.0113521
0.0346947
0.0599511
0.0838319
0.102974
0.114753
0.11877
0.117128
0.112184
0.103997
0.0905432
0.0702191
0.0442852
0.0174944
-0.00381858
-0.0151601
-0.0165479
-0.0126014
-0.00935393
-0.00995381
-0.0128442
-0.0139368
-0.0104679
-0.00312627
0.00499741
0.0110919
0.0141149
0.0141145
0.0110912
0.00499693
-0.00312615
-0.0104676
-0.0139371
-0.0128457
-0.00995634
-0.009357
-0.0126045
-0.0165506
-0.0151623
-0.00382006
0.0174938
0.0442856
0.0702206
0.0905459
0.104001
0.112188
0.117133
0.118775
0.114757
0.102978
0.0838349
0.0599529
0.0346955
0.0113517
-0.00684816
-0.0175258
-0.0206267
-0.0184544
-0.0135376
-0.00727994
-0.000695794
0.00489389
0.00872748
0.0112474
0.0131227
0.0143877
0.0148243
0.0145095
0.0134032
0.0112429
0.00830283
0.00557306
0.00382466
0.00300227
0.00256191
0.0019125
0.000734795
0.000994709
0.00269206
0.00386533
0.00482048
0.00599318
0.00772416
0.0100991
0.0126242
0.0145063
0.0153799
0.015502
0.0151933
0.0145983
0.0138598
0.0128688
0.0110453
0.00777028
0.00328717
-0.00145652
-0.00540725
-0.00714555
-0.00447057
0.00467822
0.0205831
0.0414663
0.0643847
0.0861872
0.103874
0.115245
0.11998
0.119914
0.117016
0.111089
0.0999635
0.0817659
0.057386
0.031355
0.00985448
-0.00267096
-0.00597288
-0.00420906
-0.00294899
-0.00510843
-0.00929261
-0.0116072
-0.00919003
-0.00247275
0.00563961
0.0121706
0.015594
0.0155935
0.0121696
0.00563896
-0.00247278
-0.0091899
-0.0116078
-0.00929444
-0.00511132
-0.00295222
-0.0042119
-0.00597497
-0.00267224
0.00985393
0.0313552
0.0573869
0.0817677
0.0999661
0.111092
0.11702
0.119917
0.119984
0.115248
0.103877
0.0861895
0.0643867
0.041468
0.0205844
0.004679
-0.00447061
-0.00714664
-0.0054096
-0.00146019
0.00328241
0.00776499
0.0110401
0.0128643
0.0138564
0.0145964
0.0151932
0.0155037
0.0153827
0.0145095
0.0126266
0.0101
0.00772388
0.00599255
0.00482034
0.00386594
0.00269299
0.000995154
0.00112403
0.00324171
0.00519418
0.00715939
0.00905504
0.0106984
0.0121982
0.0136449
0.0148221
0.015502
0.0159308
0.0165197
0.0173893
0.0184365
0.0194238
0.0198426
0.018869
0.0162128
0.0125153
0.00899235
0.00715611
0.00887504
0.0159389
0.0289789
0.0468559
0.0669692
0.0863715
0.102492
0.113559
0.11924
0.120951
0.1202
0.116598
0.107966
0.0922737
0.0700604
0.0455227
0.024508
0.0112542
0.00620244
0.0057176
0.00480972
0.000858556
-0.0049069
-0.00881825
-0.0079132
-0.00229582
0.00539854
0.0120832
0.0157685
0.015768
0.0120821
0.00539769
-0.00229612
-0.00791337
-0.00881914
-0.004909
0.000855526
0.0048066
0.0057152
0.0062011
0.0112539
0.0245084
0.0455237
0.0700618
0.0922757
0.107969
0.1166
0.120203
0.120953
0.119242
0.11356
0.102494
0.0863729
0.066971
0.0468583
0.0289818
0.0159418
0.00887724
0.00715691
0.00899136
0.0125125
0.0162084
0.0188636
0.0198368
0.0194183
0.0184319
0.0173862
0.0165183
0.0159311
0.0155037
0.0148243
0.0136471
0.0121999
0.0106997
0.00905599
0.00716001
0.00519456
0.00324194
0.00112412
0.00123527
0.00370136
0.00628986
0.0090758
0.0115082
0.0129169
0.0134515
0.0138061
0.0143869
0.0151933
0.0165197
0.0188057
0.0219767
0.0255016
0.0288901
0.0316195
0.0326349
0.0311564
0.0276288
0.0235668
0.0207048
0.0206951
0.0251359
0.0350131
0.0497526
0.0670174
0.0840178
0.0986033
0.109427
0.116118
0.1196
0.120877
0.119415
0.113141
0.10001
0.0803143
0.0578713
0.0380346
0.0246477
0.018197
0.0155584
0.0124055
0.0064956
-0.00106242
-0.00683714
-0.00780795
-0.00375408
0.00300887
0.00938908
0.0130648
0.0130644
0.00938804
0.00300792
-0.00375464
-0.00780849
-0.00683841
-0.00106479
0.00649255
0.0124027
0.0155566
0.0181965
0.0246482
0.0380357
0.0578729
0.0803161
0.100012
0.113143
0.119417
0.120878
0.119601
0.116118
0.109426
0.0986031
0.0840182
0.067019
0.0497556
0.0350173
0.0251406
0.0206992
0.0207072
0.0235671
0.0276271
0.0311529
0.0326301
0.0316138
0.0288842
0.0254962
0.0219723
0.0188029
0.0165183
0.0151932
0.0143877
0.0138077
0.0134539
0.0129197
0.0115107
0.00907727
0.00629019
0.00370109
0.00123508
0.00137242
0.00406128
0.00677831
0.00961987
0.011936
0.0128995
0.0127476
0.0125606
0.0131233
0.0145983
0.0173893
0.0219767
0.0279983
0.0343766
0.0402841
0.0451381
0.0476753
0.0466888
0.0424844
0.0369296
0.0321033
0.0296508
0.031154
0.0379517
0.0498519
0.0645769
0.0793678
0.0924616
0.102977
0.110557
0.115618
0.118618
0.118903
0.114602
0.103831
0.0867843
0.0668786
0.0488203
0.035868
0.0283932
0.0237474
0.0183326
0.0103636
0.000888411
-0.00690776
-0.0100228
-0.00796715
-0.00270978
0.00279395
0.00609964
0.00609923
0.00279298
-0.00271077
-0.00796794
-0.0100237
-0.0069094
0.000885851
0.0103607
0.0183302
0.0237463
0.0283936
0.0358694
0.0488222
0.0668807
0.0867864
0.103833
0.114604
0.118905
0.118618
0.115617
0.110555
0.102975
0.0924602
0.0793675
0.0645783
0.0498553
0.0379567
0.0311597
0.0296561
0.0321072
0.0369314
0.0424842
0.0466868
0.0476716
0.0451332
0.0402784
0.0343708
0.027993
0.0219723
0.0173862
0.0145964
0.0131227
0.0125614
0.01275
0.0129028
0.0119392
0.00962201
0.00677911
0.00406125
0.0013723
0.00152117
0.00429055
0.00662435
0.0087434
0.0102812
0.0106261
0.0101588
0.0100822
0.0112493
0.0138598
0.0184365
0.0255016
0.0343766
0.0434262
0.0514933
0.0579456
0.0613765
0.0602358
0.054705
0.0469654
0.0394832
0.0340858
0.0325331
0.0365288
0.0460915
0.0588077
0.0718135
0.0836569
0.093915
0.102291
0.108721
0.113126
0.114766
0.112047
0.103373
0.0889524
0.0718037
0.0559114
0.0438583
0.0357921
0.0294634
0.0219753
0.0120086
0.00059517
-0.00930782
-0.0147707
-0.0150989
-0.0119022
-0.0078568
-0.00529858
-0.00529895
-0.00785769
-0.0119033
-0.0150999
-0.014772
-0.00930973
0.000592611
0.012006
0.0219735
0.0294631
0.0357933
0.0438604
0.0559138
0.071806
0.0889544
0.103375
0.112049
0.114767
0.113125
0.10872
0.102289
0.093912
0.0836545
0.0718128
0.058809
0.0460949
0.0365339
0.0325389
0.0340916
0.0394881
0.0469688
0.0547067
0.0602356
0.0613745
0.0579417
0.0514882
0.0434205
0.0343708
0.0254962
0.0184319
0.0138564
0.0112474
0.0100822
0.0101604
0.0106288
0.0102843
0.00874598
0.00662608
0.00429145
0.00152144
0.00146525
0.00389355
0.00538039
0.00628884
0.00668959
0.00637928
0.00591168
0.00645248
0.00873043
0.0128688
0.0194238
0.0288901
0.0402841
0.0514933
0.0610666
0.0683055
0.0717314
0.0696103
0.0620903
0.0516164
0.0409902
0.0322899
0.0275748
0.0289499
0.0365889
0.0478789
0.0597537
0.0709032
0.0812122
0.0904162
0.0980302
0.103532
0.106176
0.104695
0.0978315
0.0858865
0.0715199
0.0580222
0.0473041
0.0392083
0.0317486
0.0226146
0.0109125
-0.00229506
-0.01424
-0.0221194
-0.0251249
-0.0245154
-0.0225296
-0.0211237
-0.021124
-0.0225303
-0.0245165
-0.0251263
-0.0221211
-0.0142421
-0.00229746
0.0109104
0.0226136
0.0317491
0.0392101
0.0473067
0.0580248
0.0715222
0.0858885
0.0978332
0.104696
0.106176
0.103531
0.0980278
0.0904128
0.0812085
0.0709003
0.0597526
0.0478799
0.0365919
0.0289543
0.0275802
0.0322956
0.0409957
0.0516211
0.0620937
0.069612
0.071731
0.068303
0.0610625
0.0514882
0.0402784
0.0288842
0.0194183
0.0128643
0.00872748
0.00645129
0.00591209
0.00638089
0.00669196
0.00629155
0.00538297
0.00389545
0.00146595
0.000791095
0.00181661
0.00177762
0.0011486
0.000345244
-0.000469987
-0.000610771
0.000995541
0.00489779
0.0110453
0.0198426
0.0316195
0.0451381
0.0579456
0.0683055
0.0753665
0.0776478
0.0734929
0.063234
0.0495877
0.0355922
0.0235172
0.0157084
0.0146521
0.0206901
0.031071
0.0425035
0.0536227
0.0643881
0.074486
0.0830822
0.0893318
0.0925704
0.0918987
0.08646
0.0767316
0.0650879
0.0541734
0.0452275
0.0376903
0.029686
0.0193806
0.00629813
-0.00839724
-0.0221049
-0.0322593
-0.0380926
-0.0405466
-0.0412397
-0.0414214
-0.0414216
-0.0412402
-0.0405476
-0.0380942
-0.0322614
-0.0221073
-0.00839941
0.00629668
0.0193804
0.0296873
0.0376927
0.0452303
0.0541762
0.0650902
0.0767333
0.0864613
0.0918993
0.0925699
0.08933
0.0830791
0.0744821
0.0643842
0.0536197
0.0425021
0.0310715
0.0206923
0.0146556
0.015713
0.0235226
0.0355979
0.0495932
0.0632388
0.0734962
0.0776491
0.0753658
0.068303
0.0579417
0.0451332
0.0316138
0.0198368
0.0110401
0.0048939
0.000993135
-0.000611792
-0.000469821
0.000346492
0.00115079
0.00178025
0.0018188
0.000791947
-0.000673212
-0.00237859
-0.00470358
-0.00709727
-0.00899675
-0.0100515
-0.00955731
-0.00656499
-0.00069121
0.00777028
0.018869
0.0326349
0.0476753
0.0613765
0.0717314
0.0776478
0.077718
0.0706278
0.0571148
0.0402019
0.0230932
0.00814776
-0.00215108
-0.00510324
-0.000241982
0.00965777
0.0211651
0.0327655
0.0443194
0.0553854
0.0648155
0.0715087
0.0749296
0.0746076
0.0701723
0.0623726
0.0533526
0.0451347
0.0382772
0.0317438
0.0236523
0.0125723
-0.00153429
-0.0173263
-0.0323708
-0.0444817
-0.0531155
-0.0589523
-0.062822
-0.064958
-0.064958
-0.0628222
-0.0589531
-0.0531171
-0.044484
-0.0323732
-0.0173282
-0.00153512
0.0125728
0.0236542
0.0317465
0.0382801
0.0451373
0.0533546
0.062374
0.0701731
0.0746076
0.0749285
0.0715063
0.0648119
0.0553813
0.0443154
0.0327625
0.0211636
0.00965778
-0.00024066
-0.00510078
-0.00214745
0.00815252
0.0230987
0.0402076
0.0571201
0.0706321
0.0777209
0.0776491
0.071731
0.0613745
0.0476716
0.0326301
0.0188636
0.00776499
-0.000695793
-0.00656857
-0.00955982
-0.0100529
-0.00899701
-0.00709643
-0.00470204
-0.00237715
-0.000672634
-0.00261456
-0.0078286
-0.0128217
-0.0169942
-0.01978
-0.0207985
-0.0194731
-0.0150447
-0.00727519
0.00328717
0.0162128
0.0311564
0.0466888
0.0602358
0.0696103
0.0734929
0.0706278
0.0601657
0.0433058
0.0233703
0.00373665
-0.0131869
-0.0249757
-0.0289969
-0.0247816
-0.0150121
-0.00308953
0.00935743
0.0220219
0.0342796
0.0446564
0.051791
0.0552714
0.0550852
0.0514062
0.0453097
0.0387574
0.0332118
0.0286012
0.0233956
0.0156191
0.00416811
-0.0105523
-0.0269622
-0.0428033
-0.056403
-0.067613
-0.0769205
-0.0842481
-0.08857
-0.0885698
-0.084248
-0.0769211
-0.0676146
-0.0564054
-0.0428056
-0.0269636
-0.0105524
0.00416931
0.0156213
0.0233984
0.028604
0.0332141
0.0387591
0.0453107
0.0514065
0.0550847
0.0552698
0.0517882
0.0446527
0.0342755
0.0220181
0.00935461
-0.00309111
-0.0150124
-0.024781
-0.0289952
-0.024973
-0.013183
0.00374142
0.0233755
0.043311
0.0601706
0.0706321
0.0734962
0.069612
0.0602356
0.0466868
0.0311529
0.0162084
0.00328241
-0.00727994
-0.0150491
-0.0194768
-0.0208014
-0.019782
-0.0169952
-0.0128221
-0.00782865
-0.00261455
-0.00450839
-0.0131116
-0.0206108
-0.0263799
-0.0298588
-0.030669
-0.0284687
-0.0227885
-0.0135333
-0.00145652
0.0125153
0.0276288
0.0424844
0.054705
0.0620903
0.063234
0.0571148
0.0433058
0.0233253
0.000709977
-0.0209336
-0.0390967
-0.0515368
-0.0559297
-0.0519224
-0.0420108
-0.029411
-0.015801
-0.00167753
0.0121154
0.0237614
0.0316157
0.0353399
0.0353442
0.0323356
0.0277366
0.0234053
0.0203777
0.0180624
0.0144481
0.00738565
-0.00398201
-0.0188079
-0.0352233
-0.0511709
-0.0656351
-0.0790285
-0.0917157
-0.102618
-0.109254
-0.109254
-0.102618
-0.091716
-0.0790301
-0.0656374
-0.051173
-0.0352243
-0.0188073
-0.00398012
0.00738824
0.0144508
0.0180647
0.0203795
0.0234065
0.0277371
0.0323354
0.0353432
0.0353378
0.0316127
0.0237578
0.0121116
-0.00168087
-0.0158035
-0.0294125
-0.0420114
-0.0519222
-0.0559287
-0.0515349
-0.0390939
-0.02093
0.000714217
0.0233301
0.043311
0.0571201
0.0632388
0.0620937
0.0547067
0.0424842
0.0276271
0.0125125
-0.00146019
-0.0135376
-0.0227932
-0.0284733
-0.0306733
-0.0298625
-0.026383
-0.0206133
-0.0131133
-0.00450897
-0.0059912
-0.0172555
-0.026762
-0.033872
-0.0379345
-0.0384893
-0.0354626
-0.0287633
-0.0184507
-0.00540725
0.00899235
0.0235668
0.0369296
0.0469654
0.0516164
0.0495877
0.0402019
0.0233703
0.000709977
-0.0241895
-0.0474827
-0.0664832
-0.0791422
-0.0835475
-0.0795089
-0.0692771
-0.055807
-0.040809
-0.0249932
-0.00943849
0.00370897
0.0125109
0.0166376
0.0168572
0.0143876
0.0110264
0.00861704
0.00789152
0.00781987
0.00591619
-0.000181533
-0.0111048
-0.0255346
-0.0412807
-0.0565563
-0.0711666
-0.0862346
-0.102058
-0.116488
-0.125457
-0.125456
-0.116488
-0.102058
-0.086236
-0.0711688
-0.0565581
-0.0412811
-0.0255333
-0.0111024
-0.000178732
0.0059187
0.00782179
0.00789279
0.00861772
0.0110265
0.014387
0.0168557
0.0166352
0.0125077
0.00370548
-0.00944181
-0.0249959
-0.040811
-0.0558082
-0.0692777
-0.0795089
-0.0835471
-0.0791413
-0.0664816
-0.0474804
-0.0241863
0.000714218
0.0233755
0.0402076
0.0495932
0.0516211
0.0469688
0.0369314
0.0235671
0.00899136
-0.0054096
-0.0184544
-0.0287681
-0.035468
-0.0384948
-0.0379397
-0.0338768
-0.026766
-0.0172583
-0.0059922
-0.00679611
-0.0195086
-0.0301498
-0.0380922
-0.0425006
-0.0427422
-0.0389878
-0.0315476
-0.0206237
-0.00714555
0.00715611
0.0207048
0.0321033
0.0394832
0.0409902
0.0355922
0.0230932
0.00373665
-0.0209336
-0.0474827
-0.0719282
-0.0913964
-0.104005
-0.108256
-0.104103
-0.0935035
-0.0791219
-0.0627104
-0.0452013
-0.0278978
-0.0132488
-0.0034944
0.000985283
0.00127766
-0.000874364
-0.00326601
-0.00402683
-0.00268423
-0.000687434
-0.000991315
-0.00614786
-0.0165119
-0.0302272
-0.0447565
-0.0586602
-0.0726966
-0.0888005
-0.107256
-0.124864
-0.135976
-0.135976
-0.124863
-0.107256
-0.0888016
-0.0726984
-0.0586616
-0.0447564
-0.0302255
-0.0165092
-0.00614509
-0.000989103
-0.000685962
-0.00268341
-0.00402655
-0.00326628
-0.000875329
0.00127586
0.000982659
-0.00349755
-0.013252
-0.0279005
-0.0452034
-0.0627117
-0.0791226
-0.0935039
-0.104103
-0.108256
-0.104004
-0.0913957
-0.0719268
-0.0474804
-0.02093
0.00374142
0.0230987
0.0355979
0.0409957
0.0394881
0.0321072
0.0207072
0.00715691
-0.00714664
-0.0206267
-0.0315523
-0.0389937
-0.0427486
-0.0425071
-0.0380981
-0.0301547
-0.0195119
-0.00679729
-0.00657175
-0.0188223
-0.0290425
-0.0366789
-0.0407304
-0.0404002
-0.0360617
-0.028347
-0.0175235
-0.00447057
0.00887504
0.0206951
0.0296508
0.0340858
0.0322899
0.0235172
0.00814776
-0.0131869
-0.0390967
-0.0664832
-0.0913964
-0.110866
-0.1232
-0.127298
-0.123184
-0.112437
-0.0973851
-0.0797966
-0.0607892
-0.0418598
-0.0257589
-0.015074
-0.0103088
-0.0100848
-0.0121087
-0.0137439
-0.013079
-0.00989478
-0.00607288
-0.00503623
-0.00947951
-0.0193955
-0.0323036
-0.0452768
-0.0572554
-0.0700103
-0.0863334
-0.106568
-0.126604
-0.139408
-0.139408
-0.126603
-0.106568
-0.086334
-0.0700115
-0.0572562
-0.0452763
-0.0323017
-0.0193927
-0.00947696
-0.00503439
-0.00607181
-0.00989429
-0.013079
-0.0137445
-0.01211
-0.0100868
-0.0103114
-0.0150768
-0.0257614
-0.0418618
-0.0607904
-0.0797972
-0.0973854
-0.112437
-0.123184
-0.127298
-0.1232
-0.110866
-0.0913957
-0.0664816
-0.0390939
-0.013183
0.00815252
0.0235226
0.0322956
0.0340916
0.0296561
0.0206992
0.00887724
-0.00447061
-0.0175258
-0.0283513
-0.0360675
-0.0404069
-0.0407373
-0.0366853
-0.0290476
-0.0188256
-0.00657288
-0.00508472
-0.0144741
-0.0221751
-0.0278037
-0.0303314
-0.0289238
-0.0241128
-0.0166863
-0.00684677
0.00467822
0.0159389
0.0251359
0.031154
0.0325331
0.0275748
0.0157084
-0.00215108
-0.0249757
-0.0515368
-0.0791422
-0.104005
-0.1232
-0.135307
-0.139602
-0.136067
-0.125795
-0.1107
-0.0924939
-0.072383
-0.0520067
-0.0344429
-0.0227229
-0.0176035
-0.017504
-0.0195934
-0.0207618
-0.0189889
-0.0142627
-0.0089089
-0.00683609
-0.0108511
-0.0205065
-0.0326176
-0.0438269
-0.0534517
-0.06426
-0.079879
-0.100784
-0.122193
-0.136028
-0.136027
-0.122192
-0.100784
-0.0798791
-0.0642606
-0.0534519
-0.043826
-0.0326155
-0.0205038
-0.0108488
-0.00683457
-0.00890815
-0.0142625
-0.0189891
-0.0207625
-0.0195948
-0.017506
-0.0176059
-0.0227251
-0.0344446
-0.0520078
-0.0723834
-0.0924938
-0.1107
-0.125795
-0.136067
-0.139602
-0.135307
-0.1232
-0.104004
-0.0791413
-0.0515349
-0.024973
-0.00214745
0.015713
0.0275802
0.0325389
0.0311597
0.0251406
0.0159418
0.004679
-0.00684816
-0.0166896
-0.0241176
-0.0289297
-0.0303376
-0.0278094
-0.0221795
-0.0144769
-0.00508564
-0.0025332
-0.00700822
-0.0103111
-0.0123107
-0.012132
-0.00906441
-0.00374308
0.00307225
0.0113521
0.0205831
0.0289789
0.0350131
0.0379517
0.0365288
0.0289499
0.0146521
-0.00510324
-0.0289969
-0.0559297
-0.0835475
-0.108256
-0.127298
-0.139602
-0.144783
-0.142682
-0.13383
-0.119672
-0.101758
-0.0812442
-0.0598264
-0.0409192
-0.0281012
-0.0225655
-0.0227002
-0.0251982
-0.0264125
-0.0240851
-0.0183187
-0.0118668
-0.00912032
-0.0129642
-0.0224672
-0.0337343
-0.0430107
-0.0499918
-0.0583492
-0.0724232
-0.0928423
-0.114435
-0.128534
-0.128533
-0.114434
-0.0928416
-0.0724229
-0.0583492
-0.0499914
-0.0430093
-0.0337321
-0.0224647
-0.0129621
-0.00911902
-0.0118663
-0.0183188
-0.0240856
-0.0264135
-0.0251997
-0.0227021
-0.0225674
-0.0281027
-0.0409201
-0.0598267
-0.081244
-0.101758
-0.119671
-0.133829
-0.142681
-0.144782
-0.139602
-0.127298
-0.108256
-0.0835471
-0.0559287
-0.0289952
-0.00510078
0.0146556
0.0289543
0.0365339
0.0379567
0.0350173
0.0289818
0.0205844
0.0113517
0.00307038
-0.00374622
-0.00906848
-0.0121365
-0.0123149
-0.0103143
-0.00701017
-0.00253384
0.000598364
0.00217712
0.00436892
0.00699992
0.0106488
0.0158031
0.0218021
0.0280432
0.0346947
0.0414663
0.0468559
0.0497526
0.0498519
0.0460915
0.0365889
0.0206901
-0.000241982
-0.0247816
-0.0519224
-0.0795089
-0.104103
-0.123184
-0.136067
-0.142682
-0.142706
-0.136125
-0.123902
-0.107327
-0.0873492
-0.0655939
-0.0457422
-0.0319638
-0.026065
-0.0266114
-0.0299291
-0.0318065
-0.0296388
-0.0235423
-0.0166255
-0.0136795
-0.0175961
-0.0269607
-0.0372687
-0.0445005
-0.0487436
-0.0543991
-0.0662916
-0.0851628
-0.105752
-0.119318
-0.119317
-0.105751
-0.0851621
-0.066291
-0.0543985
-0.0487425
-0.0444988
-0.0372664
-0.0269582
-0.0175941
-0.0136783
-0.0166251
-0.0235426
-0.0296395
-0.0318076
-0.0299305
-0.0266129
-0.0260662
-0.0319645
-0.0457423
-0.0655936
-0.0873486
-0.107326
-0.123901
-0.136124
-0.142705
-0.142681
-0.136067
-0.123184
-0.104103
-0.0795089
-0.0519222
-0.024781
-0.000240655
0.0206923
0.0365919
0.0460949
0.0498553
0.0497556
0.0468583
0.041468
0.0346955
0.028043
0.021801
0.0158014
0.0106466
0.00699775
0.00436719
0.00217607
0.000598027
0.00391478
0.0119201
0.0199798
0.0275722
0.0349079
0.0422537
0.0490178
0.0548074
0.0599511
0.0643847
0.0669692
0.0670174
0.0645769
0.0588077
0.0478789
0.031071
0.00965777
-0.0150121
-0.0420108
-0.0692771
-0.0935035
-0.112437
-0.125795
-0.13383
-0.136125
-0.132212
-0.122602
-0.108255
-0.0897812
-0.0685578
-0.0483731
-0.0339316
-0.0277522
-0.028765
-0.0330962
-0.0360538
-0.0346753
-0.0290141
-0.0224009
-0.0198548
-0.0241515
-0.0334137
-0.0426952
-0.0478984
-0.0495087
-0.0524225
-0.0616553
-0.0779965
-0.0964127
-0.108648
-0.108648
-0.0964123
-0.0779958
-0.0616544
-0.0524212
-0.049507
-0.0478963
-0.0426928
-0.0334114
-0.0241497
-0.0198538
-0.0224006
-0.0290144
-0.034676
-0.0360547
-0.0330973
-0.028766
-0.0277527
-0.0339316
-0.0483727
-0.068557
-0.0897803
-0.108254
-0.122601
-0.132211
-0.136124
-0.133829
-0.125795
-0.112437
-0.0935039
-0.0692777
-0.0420114
-0.0150124
0.00965779
0.0310715
0.0478799
0.058809
0.0645783
0.067019
0.066971
0.0643867
0.0599529
0.0548089
0.049019
0.0422545
0.0349083
0.0275723
0.0199797
0.01192
0.00391474
0.00709064
0.0212471
0.0349002
0.0471629
0.0578889
0.0672008
0.0746529
0.0800487
0.0838319
0.0861872
0.0863715
0.0840178
0.0793678
0.0718135
0.0597537
0.0425035
0.0211651
-0.00308953
-0.029411
-0.055807
-0.0791219
-0.0973851
-0.1107
-0.119672
-0.123902
-0.122602
-0.115901
-0.104399
-0.0882544
-0.0684191
-0.0485803
-0.0338305
-0.0273917
-0.0286929
-0.0338751
-0.0379647
-0.037738
-0.0331623
-0.0276445
-0.0262061
-0.0313286
-0.0406728
-0.0490235
-0.0523882
-0.0516287
-0.0518689
-0.0580126
-0.0708493
-0.085917
-0.096018
-0.096018
-0.0859168
-0.0708486
-0.0580113
-0.0518669
-0.0516263
-0.0523857
-0.0490211
-0.0406708
-0.0313271
-0.0262053
-0.0276443
-0.0331625
-0.0377385
-0.0379652
-0.0338756
-0.0286932
-0.0273916
-0.03383
-0.0485797
-0.0684183
-0.0882535
-0.104398
-0.1159
-0.122601
-0.123901
-0.119671
-0.1107
-0.0973854
-0.0791226
-0.0558082
-0.0294125
-0.00309111
0.0211636
0.0425021
0.0597525
0.0718127
0.0793675
0.0840182
0.0863728
0.0861895
0.0838349
0.080052
0.0746563
0.0672041
0.0578918
0.0471653
0.0349019
0.021248
0.00709091
0.00969166
0.0288636
0.0470185
0.0629656
0.0762998
0.0870945
0.095073
0.100188
0.102974
0.103874
0.102492
0.0986033
0.0924616
0.0836569
0.0709032
0.0536227
0.0327655
0.00935743
-0.015801
-0.040809
-0.0627104
-0.0797966
-0.0924939
-0.101758
-0.107327
-0.108255
-0.104399
-0.0960154
-0.08275
-0.0650175
-0.0462109
-0.031598
-0.0249803
-0.026339
-0.0320338
-0.0370629
-0.0381291
-0.0351711
-0.031552
-0.032035
-0.0385816
-0.0483708
-0.056087
-0.0580082
-0.0553179
-0.0530773
-0.0557828
-0.0642031
-0.0748035
-0.0820045
-0.0820045
-0.0748034
-0.0642023
-0.055781
-0.0530746
-0.0553148
-0.0580054
-0.0560847
-0.0483691
-0.0385804
-0.0320343
-0.0315517
-0.0351711
-0.0381292
-0.037063
-0.0320338