/*--------------------------------*- C++ -*----------------------------------*\
  =========                 |
  \\      /  F ield         | OpenFOAM: The Open Source CFD Toolbox
   \\    /   O peration     | Website:  https://openfoam.org
    \\  /    A nd           | Version:  10
     \\/     M anipulation  |
\*---------------------------------------------------------------------------*/
FoamFile
{
    format      ascii;
    class       volScalarField;
    location    "70";
    object      h_0;
}
// * * * * * * * * * * * * * * * * * * * * * * * * * * * * * * * * * * * * * //

dimensions      [0 1 0 0 0 0 0];

internalField   nonuniform List<scalar> 
10000
(
0.000452264
0.001272
0.00185512
0.00215984
0.00229811
0.00237618
0.00236699
0.00218889
0.00180107
0.00123431
0.000692864
0.00055279
0.0010799
0.00216545
0.00343649
0.00455277
0.00528833
0.00556757
0.00557413
0.00565886
0.00594761
0.00624124
0.00635639
0.00627135
0.00598148
0.00549152
0.00497629
0.00470573
0.00473424
0.00471838
0.00422434
0.00317562
0.00189457
0.000870271
0.000622188
0.00150433
0.0034115
0.005761
0.00787209
0.00943682
0.0106143
0.0115703
0.0120573
0.0115913
0.0098982
0.00722356
0.00425223
0.00167082
-0.000117753
-0.000991408
-0.000991366
-0.000117609
0.0016711
0.00425269
0.00722418
0.00989894
0.0115921
0.0120581
0.0115709
0.0106146
0.00943691
0.00787189
0.00576053
0.00341085
0.0015036
0.000621476
0.000869656
0.00189413
0.00317543
0.00422444
0.00471875
0.00473476
0.0047062
0.00497659
0.00549159
0.00598143
0.00627131
0.00635644
0.00624133
0.00594759
0.00565869
0.00557393
0.00556753
0.00528855
0.00455312
0.00343672
0.00216536
0.00107952
0.000552388
0.000692744
0.00123456
0.00180149
0.00218918
0.00236697
0.00237593
0.00229788
0.00215984
0.00185537
0.00127231
0.000452404
0.001272
0.00361467
0.00536804
0.00637948
0.0068736
0.00706357
0.0068583
0.00610761
0.00481785
0.00314689
0.00164898
0.00130654
0.0028076
0.00585154
0.00945486
0.0127209
0.0149922
0.0159541
0.016034
0.0162211
0.0169444
0.0177192
0.0180509
0.0178314
0.0169667
0.0154331
0.0137823
0.0128889
0.0129715
0.0130163
0.0116911
0.00870449
0.00497751
0.0019746
0.00126824
0.00391873
0.00959502
0.0165364
0.0227048
0.0271977
0.0305224
0.0332209
0.0346052
0.0332566
0.028346
0.020564
0.0119007
0.00436647
-0.000854389
-0.00340442
-0.0034043
-0.000853961
0.00436733
0.0119021
0.0205659
0.0283482
0.0332589
0.0346073
0.0332226
0.0305235
0.027198
0.0227043
0.0165351
0.00959314
0.00391657
0.00126608
0.00197272
0.00497616
0.00870392
0.0116914
0.0130174
0.0129729
0.0128902
0.0137831
0.0154334
0.0169666
0.0178313
0.018051
0.0177193
0.0169443
0.0162206
0.0160336
0.0159541
0.0149927
0.0127218
0.00945539
0.00585129
0.00280667
0.0013056
0.00164873
0.0031475
0.00481886
0.00610833
0.00685833
0.00706307
0.00687311
0.00637951
0.00536863
0.00361538
0.00127231
0.00185512
0.00536804
0.00821627
0.0100811
0.0110528
0.0112164
0.0103961
0.00858085
0.0061049
0.00339967
0.00124005
0.000879666
0.00316831
0.00766305
0.0130787
0.0182564
0.0221794
0.0241203
0.0244669
0.0246655
0.0255274
0.0265298
0.0270104
0.0267012
0.0252535
0.0225216
0.0194648
0.0176886
0.0177204
0.0179744
0.0162025
0.0117572
0.00599623
0.00128177
0.000222564
0.00457578
0.0137875
0.0249462
0.0347021
0.041605
0.0465486
0.0505288
0.0525591
0.0504034
0.0426975
0.030482
0.0168765
0.00505826
-0.00310731
-0.00708411
-0.00708391
-0.0031066
0.00505968
0.0168788
0.030485
0.042701
0.050407
0.0525625
0.0505315
0.0465503
0.0416056
0.0347014
0.0249443
0.0137846
0.00457229
0.000219026
0.00127867
0.00599402
0.0117562
0.0162029
0.0179759
0.0177224
0.0176905
0.0194661
0.0225223
0.0252538
0.0267013
0.0270105
0.0265298
0.0255271
0.0246649
0.0244665
0.0241204
0.0221801
0.0182572
0.0130791
0.00766275
0.0031674
0.000878786
0.00123986
0.00340031
0.00610594
0.00858167
0.0103964
0.0112162
0.0110525
0.0100813
0.00821679
0.00536863
0.00185537
0.00215984
0.00637948
0.0100811
0.0127478
0.0141405
0.0140341
0.0121602
0.00880474
0.00483895
0.00108868
-0.00154733
-0.00183672
0.000986404
0.00636954
0.0130016
0.0197392
0.0253203
0.0285098
0.0294021
0.0296535
0.0304429
0.0314163
0.0319049
0.0314619
0.0293735
0.0252877
0.0205487
0.0175628
0.0173307
0.0179005
0.0161953
0.0110661
0.00403436
-0.00185698
-0.00308105
0.00278068
0.0150174
0.0297037
0.0423117
0.0509078
0.0567658
0.0613839
0.063661
0.0607422
0.0508124
0.0351653
0.0178026
0.00281133
-0.00745646
-0.0124163
-0.012416
-0.00745546
0.00281328
0.0178056
0.0351693
0.0508169
0.0607469
0.0636654
0.0613875
0.0567683
0.0509088
0.042311
0.0297012
0.0150136
0.00277614
-0.00308564
-0.00186099
0.00403144
0.0110647
0.0161955
0.0179019
0.0173328
0.0175649
0.0205505
0.025289
0.0293742
0.0314622
0.0319048
0.0314161
0.0304425
0.0296531
0.029402
0.02851
0.0253207
0.0197395
0.0130017
0.00636938
0.000986062
-0.001837
-0.00154733
0.001089
0.00483948
0.00880536
0.0121608
0.0140346
0.0141409
0.012748
0.0100813
0.00637951
0.00215984
0.00229811
0.0068736
0.0110528
0.0141405
0.015573
0.0148273
0.0115736
0.00639195
0.000665719
-0.00437122
-0.00768618
-0.00812961
-0.00509164
0.000781892
0.00823859
0.016224
0.0233082
0.0278045
0.0294417
0.0298842
0.0305605
0.0313478
0.0316545
0.0308785
0.0279578
0.0223542
0.0157715
0.0114037
0.0108182
0.0119049
0.010895
0.0060222
-0.00132047
-0.00767635
-0.00878124
-0.00163738
0.0129589
0.0302642
0.0447781
0.0541876
0.0601373
0.0646675
0.0667687
0.0632021
0.0518017
0.033994
0.0143555
-0.00243342
-0.0137695
-0.019171
-0.0191706
-0.0137682
-0.00243101
0.0143591
0.0339985
0.0518069
0.0632075
0.0667738
0.0646719
0.0601404
0.054189
0.0447773
0.0302614
0.0129545
-0.00164257
-0.00878643
-0.0076809
-0.00132395
0.00602011
0.0108945
0.0119057
0.0108199
0.0114059
0.0157738
0.0223561
0.027959
0.0308789
0.0316543
0.0313475
0.0305603
0.0298842
0.029442
0.0278047
0.0233081
0.0162236
0.00823827
0.000781989
-0.0050912
-0.00812914
-0.00768595
-0.00437126
0.000665678
0.00639232
0.0115745
0.0148285
0.0155739
0.0141409
0.0110525
0.00687311
0.00229788
0.00237618
0.00706357
0.0112164
0.0140341
0.0148273
0.0129818
0.00817777
0.0011344
-0.00650965
-0.0132294
-0.0177692
-0.018889
-0.015994
-0.00978659
-0.00157203
0.00750283
0.0158111
0.0213843
0.0237293
0.0244591
0.0251131
0.0257191
0.0257012
0.0242904
0.0201967
0.0128684
0.00442241
-0.00122023
-0.00195415
5.31318e-05
0.000444058
-0.00323927
-0.00994613
-0.0160168
-0.0166381
-0.00837794
0.00789533
0.0268129
0.0421545
0.05139
0.0565586
0.0602919
0.0618775
0.0579206
0.0459832
0.0274676
0.007181
-0.00994026
-0.0212717
-0.0265632
-0.0265627
-0.0212701
-0.00993747
0.007185
0.0274725
0.0459887
0.0579263
0.061883
0.0602968
0.0565622
0.0513917
0.042154
0.0268101
0.00789086
-0.00838331
-0.0166435
-0.0160216
-0.00995008
-0.00324209
0.000442574
5.29701e-05
-0.00195318
-0.0012184
0.00442479
0.0128708
0.0201984
0.0242911
0.0257011
0.0257189
0.0251132
0.0244594
0.0237297
0.0213844
0.0158106
0.00750189
-0.0015726
-0.00978631
-0.0159931
-0.0188881
-0.0177687
-0.0132294
-0.00650982
0.00113473
0.00817887
0.0129834
0.0148285
0.0140346
0.0112162
0.00706307
0.00237593
0.00236699
0.0068583
0.0103961
0.0121602
0.0115736
0.00817777
0.00174464
-0.00705825
-0.0166648
-0.0254396
-0.0318183
-0.034219
-0.0318149
-0.0252889
-0.0161842
-0.00604919
0.00318364
0.00946444
0.0123374
0.0134181
0.0142444
0.0148358
0.0144613
0.0121298
0.00650347
-0.00270701
-0.0128709
-0.0194512
-0.0199344
-0.0165205
-0.0140555
-0.0156991
-0.0208829
-0.0259279
-0.0256924
-0.0165049
0.00069115
0.0201338
0.0351974
0.0433254
0.0469563
0.0493128
0.0501412
0.046109
0.034598
0.0168469
-0.00244179
-0.0184165
-0.0286658
-0.0332955
-0.033295
-0.0286641
-0.0184135
-0.00243758
0.0168519
0.0346035
0.0461146
0.0501467
0.0493177
0.0469602
0.0433275
0.0351973
0.0201315
0.000687117
-0.0165099
-0.0256976
-0.0259328
-0.0208872
-0.0157027
-0.014058
-0.0165218
-0.0199345
-0.0194502
-0.0128689
-0.00270455
0.00650563
0.0121311
0.0144618
0.0148361
0.0142447
0.0134185
0.0123376
0.00946431
0.00318295
-0.00605014
-0.0161847
-0.0252887
-0.031814
-0.034218
-0.0318175
-0.0254392
-0.0166645
-0.00705774
0.00174555
0.00817887
0.0115745
0.0121608
0.0103964
0.00685833
0.00236697
0.00218889
0.00610761
0.00858085
0.00880474
0.00639195
0.0011344
-0.00705825
-0.0176599
-0.0293522
-0.0404918
-0.0491643
-0.0533054
-0.0516894
-0.0448987
-0.0348233
-0.0236385
-0.0136721
-0.00691305
-0.00359378
-0.00206222
-0.00087138
-0.000140669
-0.000895984
-0.00436784
-0.011734
-0.0227578
-0.0342532
-0.0412584
-0.0410287
-0.0357646
-0.0306493
-0.0294914
-0.0323154
-0.0356341
-0.0342448
-0.0244444
-0.00721094
0.0116136
0.0253729
0.0316679
0.0332712
0.0339034
0.033858
0.0300682
0.0198632
0.00422601
-0.0125398
-0.0259922
-0.0341608
-0.037619
-0.0376183
-0.0341588
-0.025989
-0.0125356
0.0042308
0.0198682
0.0300734
0.0338632
0.0339082
0.033275
0.0316701
0.0253732
0.011612
-0.00721414
-0.0244486
-0.0342493
-0.0356387
-0.0323199
-0.0294956
-0.0306528
-0.0357671
-0.04103
-0.0412584
-0.034252
-0.0227557
-0.0117316
-0.00436575
-0.000894429
-0.000139575
-0.000870696
-0.00206194
-0.00359384
-0.00691336
-0.0136726
-0.023639
-0.0348237
-0.0448987
-0.051689
-0.0533047
-0.0491633
-0.0404906
-0.0293511
-0.0176591
-0.00705774
0.00113473
0.00639232
0.00880536
0.00858167
0.00610833
0.00218918
0.00180107
0.00481785
0.0061049
0.00483895
0.000665719
-0.00650965
-0.0166648
-0.0293522
-0.0434075
-0.0571014
-0.0681735
-0.0741584
-0.0734885
-0.0666149
-0.0557212
-0.0435979
-0.0329593
-0.0257091
-0.0218795
-0.0198625
-0.0183478
-0.0175837
-0.0188779
-0.023639
-0.0327102
-0.0451745
-0.0573519
-0.0641013
-0.0626334
-0.0551174
-0.0469175
-0.0424028
-0.0422433
-0.0433131
-0.040597
-0.0305614
-0.0141768
0.00295506
0.0145328
0.0184938
0.0178582
0.0166991
0.015867
0.0127086
0.00461039
-0.00776944
-0.0207657
-0.0306113
-0.0359461
-0.0378622
-0.0378615
-0.0359441
-0.0306082
-0.0207618
-0.00776514
0.00461484
0.0127131
0.0158716
0.0167035
0.0178618
0.0184961
0.0145335
0.00295426
-0.0141788
-0.0305642
-0.0406003
-0.0433169
-0.0422476
-0.0424076
-0.046922
-0.0551211
-0.0626359
-0.0641024
-0.0573516
-0.045173
-0.0327079
-0.0236363
-0.0188754
-0.0175816
-0.0183465
-0.0198622
-0.0218798
-0.0257095
-0.0329596
-0.0435981
-0.0557214
-0.0666152
-0.0734888
-0.0741581
-0.0681724
-0.0570996
-0.0434058
-0.0293511
-0.0166645
-0.00650982
0.00066568
0.00483948
0.00610594
0.00481886
0.00180149
0.00123431
0.00314689
0.00339967
0.00108868
-0.00437122
-0.0132294
-0.0254396
-0.0404918
-0.0571014
-0.0732444
-0.0863561
-0.0938379
-0.0940378
-0.0873026
-0.0759218
-0.0630718
-0.0517474
-0.0438501
-0.0394274
-0.0370829
-0.0356123
-0.035216
-0.0373203
-0.043419
-0.0539523
-0.0673082
-0.079435
-0.0852362
-0.0820413
-0.0719962
-0.0605524
-0.0525408
-0.0492283
-0.0478952
-0.0438774
-0.0339933
-0.0192163
-0.00466189
0.00405967
0.00539164
0.00252986
-0.000252503
-0.00159833
-0.00367018
-0.00895795
-0.0171956
-0.0255418
-0.0310932
-0.0331809
-0.0333787
-0.033378
-0.0331789
-0.0310903
-0.0255383
-0.017192
-0.00895425
-0.00366637
-0.00159439
-0.000248725
0.002533
0.00539378
0.00406076
-0.00466168
-0.0192168
-0.0339943
-0.0438792
-0.0478981
-0.0492324
-0.0525458
-0.0605576
-0.0720008
-0.0820447
-0.0852384
-0.0794358
-0.0673076
-0.0539504
-0.0434161
-0.037317
-0.0352131
-0.0356102
-0.0370822
-0.0394276
-0.0438505
-0.0517476
-0.0630719
-0.0759219
-0.0873029
-0.0940382
-0.0938379
-0.0863552
-0.0732428
-0.0570996
-0.0404906
-0.0254392
-0.0132294
-0.00437126
0.001089
0.00340032
0.0031475
0.00123456
0.000692864
0.00164898
0.00124005
-0.00154733
-0.00768618
-0.0177692
-0.0318183
-0.0491643
-0.0681735
-0.0863561
-0.100909
-0.109369
-0.110253
-0.103836
-0.0923113
-0.0789666
-0.0669417
-0.0582463
-0.0532062
-0.0508091
-0.04988
-0.0503256
-0.0534658
-0.0607957
-0.0723841
-0.086029
-0.097464
-0.101812
-0.0966328
-0.0840621
-0.0695831
-0.0583881
-0.0522301
-0.0487586
-0.0437481
-0.0345001
-0.0220082
-0.0107151
-0.00527784
-0.00663403
-0.0115043
-0.0155851
-0.0171064
-0.0177022
-0.0196847
-0.023224
-0.0264303
-0.0273873
-0.0261304
-0.0246106
-0.0246099
-0.0261286
-0.0273847
-0.0264273
-0.023221
-0.0196818
-0.0176992
-0.0171033
-0.0155822
-0.0115019
-0.00663223
-0.00527642
-0.0107137
-0.022007
-0.0344993
-0.0437482
-0.0487603
-0.0522335
-0.0583928
-0.0695883
-0.084067
-0.0966369
-0.101815
-0.0974659
-0.0860294
-0.0723828
-0.060793
-0.0534622
-0.0503219
-0.0498771
-0.0508076
-0.0532058
-0.0582465
-0.066942
-0.0789669
-0.0923114
-0.103836
-0.110253
-0.109369
-0.100908
-0.0863552
-0.0681724
-0.0491633
-0.0318175
-0.0177687
-0.00768595
-0.00154733
0.00123986
0.00164873
0.000692744
0.00055279
0.00130654
0.000879666
-0.00183672
-0.00812961
-0.018889
-0.034219
-0.0533054
-0.0741584
-0.0938379
-0.109369
-0.1185
-0.119957
-0.113932
-0.102445
-0.088767
-0.0760945
-0.0665981
-0.0610409
-0.0588996
-0.0589703
-0.0606829
-0.0650452
-0.0734458
-0.085631
-0.0989828
-0.10923
-0.111883
-0.104789
-0.0900388
-0.073073
-0.0593441
-0.0509884
-0.0459867
-0.0405909
-0.0326257
-0.0230617
-0.0155044
-0.0134818
-0.0172935
-0.0237262
-0.0286451
-0.0299909
-0.0288487
-0.0272902
-0.0259302
-0.0239009
-0.0203366
-0.0159325
-0.0128579
-0.0128573
-0.0159309
-0.0203344
-0.0238986
-0.025928
-0.0272881
-0.0288465
-0.0299887
-0.028643
-0.0237245
-0.017292
-0.0134801
-0.0155021
-0.0230589
-0.032623
-0.0405894
-0.045987
-0.0509907
-0.059348
-0.0730777
-0.0900435
-0.104793
-0.111887
-0.109233
-0.0989842
-0.0856306
-0.0734436
-0.0650418
-0.0606792
-0.0589669
-0.0588972
-0.0610396
-0.0665978
-0.0760948
-0.0887675
-0.102446
-0.113932
-0.119957
-0.118499
-0.109369
-0.0938379
-0.0741581
-0.0533047
-0.034218
-0.0188881
-0.00812914
-0.001837
0.000878784
0.0013056
0.000552387
0.0010799
0.0028076
0.00316831
0.000986404
-0.00509164
-0.015994
-0.0318149
-0.0516894
-0.0734885
-0.0940378
-0.110253
-0.119957
-0.121913
-0.11619
-0.104712
-0.0907949
-0.0776797
-0.0676611
-0.0619189
-0.0604002
-0.0618528
-0.065186
-0.070967
-0.0803393
-0.0927266
-0.105276
-0.113962
-0.114873
-0.106197
-0.0899278
-0.0713601
-0.0560788
-0.0464823
-0.04083
-0.0358485
-0.0298605
-0.023745
-0.0201534
-0.0213959
-0.0271849
-0.0345462
-0.0397211
-0.0405121
-0.0374691
-0.0323705
-0.0262556
-0.0192877
-0.0116445
-0.00457518
-0.000262515
-0.000262019
-0.00457389
-0.0116429
-0.0192862
-0.0262543
-0.0323692
-0.0374677
-0.0405106
-0.0397198
-0.0345452
-0.0271838
-0.021394
-0.0201502
-0.0237407
-0.0298563
-0.0358454
-0.0408288
-0.0464832
-0.0560814
-0.0713637
-0.0899318
-0.106201
-0.114877
-0.113966
-0.105279
-0.0927272
-0.0803381
-0.0709644
-0.0651827
-0.0618494
-0.0603971
-0.0619168
-0.0676601
-0.0776798
-0.0907956
-0.104713
-0.11619
-0.121913
-0.119957
-0.110253
-0.0940382
-0.0734888
-0.051689
-0.031814
-0.0159931
-0.0050912
0.00098606
0.0031674
0.00280667
0.00107952
0.00216545
0.00585154
0.00766305
0.00636954
0.000781892
-0.00978659
-0.0252889
-0.0448987
-0.0666149
-0.0873026
-0.103836
-0.113932
-0.11619
-0.110535
-0.0989321
-0.0848639
-0.0716364
-0.061573
-0.0560988
-0.0554861
-0.0584427
-0.063467
-0.0706963
-0.0809228
-0.0932104
-0.104599
-0.111512
-0.110797
-0.101084
-0.0842586
-0.0653656
-0.0499224
-0.0403789
-0.035164
-0.0314521
-0.0280395
-0.0256857
-0.0260541
-0.0302261
-0.0374046
-0.045008
-0.0498415
-0.0497362
-0.0447588
-0.0363586
-0.0259531
-0.0146857
-0.00370625
0.00533306
0.0104582
0.0104586
0.00533399
-0.00370523
-0.0146849
-0.0259526
-0.0363581
-0.0447581
-0.0497354
-0.0498409
-0.0450075
-0.0374037
-0.030224
-0.0260502
-0.0256804
-0.028034
-0.0314476
-0.0351614
-0.0403783
-0.0499233
-0.0653678
-0.0842616
-0.101087
-0.110801
-0.111515
-0.104602
-0.0932122
-0.0809231
-0.0706952
-0.0634649
-0.0584398
-0.055483
-0.0560963
-0.0615715
-0.0716361
-0.0848644
-0.0989328
-0.110535
-0.11619
-0.113933
-0.103836
-0.0873029
-0.0666152
-0.0448987
-0.0252887
-0.00978631
0.000781986
0.00636937
0.00766274
0.00585129
0.00216536
0.00343649
0.00945486
0.0130787
0.0130016
0.00823859
-0.00157203
-0.0161842
-0.0348233
-0.0557212
-0.0759218
-0.0923113
-0.102445
-0.104712
-0.0989321
-0.0871712
-0.0731052
-0.0600852
-0.0503554
-0.0453699
-0.0455404
-0.0495806
-0.0558128
-0.064097
-0.0748594
-0.0867712
-0.0968088
-0.101929
-0.0998552
-0.0897822
-0.0735449
-0.0558276
-0.0418184
-0.0337477
-0.0300848
-0.0284326
-0.0280504
-0.0295771
-0.0337094
-0.0403502
-0.0482953
-0.0554979
-0.0594943
-0.0583033
-0.0515656
-0.0403593
-0.0264002
-0.0117175
0.00167619
0.0118872
0.0173563
0.0173566
0.0118878
0.00167665
-0.0117174
-0.0264003
-0.0403592
-0.0515654
-0.058303
-0.0594943
-0.0554979
-0.0482946
-0.0403478
-0.033705
-0.0295712
-0.0280442
-0.0284273
-0.030081
-0.0337456
-0.0418176
-0.0558279
-0.0735463
-0.0897848
-0.0998586
-0.101933
-0.0968126
-0.0867743
-0.0748614
-0.0640977
-0.0558122
-0.049579
-0.0455381
-0.0453676
-0.0503537
-0.0600844
-0.0731051
-0.0871717
-0.0989328
-0.104713
-0.102446
-0.0923114
-0.0759219
-0.0557214
-0.0348237
-0.0161847
-0.0015726
0.00823827
0.0130017
0.0130791
0.00945539
0.00343672
0.00455277
0.0127209
0.0182564
0.0197392
0.016224
0.00750283
-0.00604919
-0.0236385
-0.0435979
-0.0630718
-0.0789666
-0.088767
-0.0907949
-0.0848639
-0.0731052
-0.0592647
-0.0466368
-0.0372877
-0.0325475
-0.0328506
-0.0370148
-0.0434605
-0.0519835
-0.062702
-0.0738953
-0.0824661
-0.0858753
-0.0827488
-0.0729544
-0.0583494
-0.0431602
-0.0319863
-0.0265938
-0.0253997
-0.0264286
-0.0293753
-0.0347402
-0.0422934
-0.0508488
-0.0589187
-0.0651282
-0.0679008
-0.0655948
-0.057485
-0.0442202
-0.0276899
-0.0106603
0.0041361
0.0147125
0.0200754
0.0200755
0.0147128
0.00413608
-0.0106608
-0.0276905
-0.0442206
-0.0574851
-0.0655949
-0.067901
-0.0651283
-0.058918
-0.0508463
-0.0422888
-0.0347341
-0.0293689
-0.0264229
-0.0253952
-0.0265903
-0.0319837
-0.0431585
-0.0583491
-0.0729557
-0.0827516
-0.0858792
-0.0824706
-0.0738997
-0.0627056
-0.051986
-0.0434618
-0.0370149
-0.0328497
-0.0325462
-0.0372864
-0.0466358
-0.0592642
-0.0731051
-0.0848644
-0.0907956
-0.0887675
-0.0789669
-0.0630719
-0.0435981
-0.023639
-0.00605014
0.00750189
0.0162236
0.0197395
0.0182572
0.0127218
0.00455312
0.00528833
0.0149922
0.0221794
0.0253203
0.0233082
0.0158111
0.00318364
-0.0136721
-0.0329593
-0.0517474
-0.0669417
-0.0760945
-0.0776797
-0.0716364
-0.0600852
-0.0466368
-0.034368
-0.0250916
-0.0199595
-0.0194141
-0.0224987
-0.0279537
-0.0356843
-0.0455886
-0.055611
-0.0625821
-0.0643845
-0.0604879
-0.051486
-0.0393245
-0.0276962
-0.0203997
-0.0185469
-0.0204445
-0.0245341
-0.0309138
-0.0399285
-0.050477
-0.0603848
-0.0679845
-0.072683
-0.07394
-0.0706199
-0.0617133
-0.0473744
-0.0294856
-0.0113308
0.00382293
0.0140163
0.018887
0.0188871
0.0140162
0.0038225
-0.0113317
-0.0294866
-0.047375
-0.0617135
-0.07062
-0.0739403
-0.0726829
-0.0679834
-0.060382
-0.0504725
-0.0399228
-0.0309078
-0.0245286
-0.0204397
-0.0185425
-0.0203956
-0.0276928
-0.0393226
-0.051486
-0.0604899
-0.0643883
-0.0625871
-0.0556165
-0.0455937
-0.0356886
-0.0279569
-0.022501
-0.0194154
-0.01996
-0.0250913
-0.0343672
-0.0466358
-0.0600844
-0.0716361
-0.0776798
-0.0760948
-0.066942
-0.0517476
-0.0329596
-0.0136726
0.00318295
0.0158106
0.0233081
0.0253207
0.0221801
0.0149927
0.00528855
0.00556757
0.0159541
0.0241203
0.0285098
0.0278045
0.0213843
0.00946444
-0.00691305
-0.0257091
-0.0438501
-0.0582463
-0.0665981
-0.0676611
-0.061573
-0.0503554
-0.0372877
-0.0250916
-0.0152952
-0.00888985
-0.00637145
-0.00712011
-0.0103354
-0.0161375
-0.0243046
-0.0325781
-0.0377757
-0.0381064
-0.0337497
-0.0260027
-0.0169399
-0.00966289
-0.00699226
-0.00922993
-0.0145297
-0.0217599
-0.0314282
-0.043758
-0.056869
-0.0676927
-0.0744299
-0.0773134
-0.0769552
-0.0728962
-0.0639532
-0.0497283
-0.0318754
-0.0139117
0.000580838
0.00975356
0.0138425
0.0138425
0.00975332
0.000580106
-0.0139129
-0.0318766
-0.049729
-0.0639535
-0.0728963
-0.0769552
-0.077313
-0.0744285
-0.0676898
-0.0568647
-0.043753
-0.0314231
-0.0217551
-0.0145251
-0.00922513
-0.00698725
-0.00965828
-0.0169366
-0.0260015
-0.0337509
-0.0381099
-0.0377809
-0.0325841
-0.0243107
-0.0161432
-0.0103405
-0.00712457
-0.00637506
-0.00889233
-0.0152963
-0.0250913
-0.0372864
-0.0503537
-0.0615715
-0.0676601
-0.0665978
-0.0582465
-0.0438505
-0.0257095
-0.00691336
0.00946431
0.0213843
0.0278047
0.02851
0.0241204
0.0159541
0.00556753
0.00557413
0.016034
0.0244669
0.0294021
0.0294417
0.0237293
0.0123374
-0.00359378
-0.0218795
-0.0394274
-0.0532062
-0.0610409
-0.0619189
-0.0560988
-0.0453699
-0.0325475
-0.0199595
-0.00888985
-0.000228662
0.00539868
0.00816854
0.00834365
0.00555251
4.29879e-05
-0.00590462
-0.00920155
-0.008283
-0.00384478
0.00221252
0.00769159
0.0101396
0.00784335
0.00139882
-0.00719666
-0.0172694
-0.0297763
-0.0449022
-0.06012
-0.0715653
-0.0773025
-0.0783524
-0.0765258
-0.0721794
-0.0640776
-0.0512378
-0.0348622
-0.0183891
-0.00547721
0.00218369
0.00531037
0.00531027
0.00218324
-0.00547814
-0.0183903
-0.0348634
-0.0512385
-0.0640778
-0.0721794
-0.0765257
-0.0783517
-0.0773009
-0.0715625
-0.0601163
-0.0448982
-0.0297724
-0.0172657
-0.00719278
0.00140336
0.00784858
0.0101448
0.00769578
0.00221471
-0.00384506
-0.00828573
-0.00920625
-0.00591054
3.6547e-05
0.00554596
0.00833712
0.00816222
0.00539306
-0.000232967
-0.00889234
-0.01996
-0.0325462
-0.0453676
-0.0560963
-0.0619168
-0.0610396
-0.0532058
-0.0394276
-0.0218798
-0.00359384
0.0123376
0.0237297
0.029442
0.029402
0.0244665
0.0160335
0.00557393
0.00565886
0.0162211
0.0246655
0.0296535
0.0298842
0.0244591
0.0134181
-0.00206222
-0.0198625
-0.0370829
-0.0508091
-0.0588996
-0.0604002
-0.0554861
-0.0455404
-0.0328506
-0.0194141
-0.00637145
0.00539868
0.0150296
0.022134
0.0264057
0.0272611
0.0249357
0.0215806
0.0200987
0.0219231
0.0260394
0.0300846
0.0317963
0.0294214
0.022395
0.0121808
0.00086211
-0.0113759
-0.025971
-0.0431679
-0.059955
-0.0717813
-0.0765342
-0.0759077
-0.072879
-0.0687182
-0.0622745
-0.0519952
-0.0384358
-0.0246346
-0.0140747
-0.00825919
-0.00616879
-0.00616898
-0.00825981
-0.0140758
-0.0246359
-0.0384369
-0.0519958
-0.0622747
-0.0687181
-0.0728787
-0.0759068
-0.0765325
-0.0717788
-0.0599522
-0.0431652
-0.0259686
-0.0113736
0.000864866
0.0121846
0.0223999
0.0294267
0.0318009
0.0300876
0.0260401
0.0219215
0.0200952
0.0215756
0.0249297
0.0272544
0.0263984
0.0221265
0.0150226
0.00539306
-0.00637506
-0.0194154
-0.0328497
-0.0455381
-0.0554831
-0.0603971
-0.0588972
-0.0508076
-0.0370822
-0.0198622
-0.00206194
0.0134185
0.0244594
0.0298842
0.0296531
0.0246649
0.0162206
0.00565869
0.00594761
0.0169444
0.0255274
0.0304429
0.0305605
0.0251131
0.0142444
-0.00087138
-0.0183478
-0.0356123
-0.04988
-0.0589703
-0.0618528
-0.0584427
-0.0495806
-0.0370148
-0.0224987
-0.00712011
0.00816854
0.022134
0.033708
0.0420168
0.046354
0.0469816
0.0458812
0.0457554
0.0479809
0.0513582
0.0531845
0.0512074
0.0444039
0.033314
0.0201528
0.00699992
-0.0064513
-0.0221304
-0.0404534
-0.0581151
-0.0700065
-0.07378
-0.0716292
-0.0675951
-0.0639199
-0.0596932
-0.0528651
-0.0432002
-0.0330287
-0.0253967
-0.0215987
-0.0205216
-0.0205219
-0.0215995
-0.025398
-0.0330301
-0.0432013
-0.0528657
-0.0596934
-0.0639198
-0.0675947
-0.0716284
-0.0737786
-0.0700047
-0.0581134
-0.0404522
-0.0221297
-0.00645064
0.0070013
0.0201555
0.0333181
0.0444088
0.0512121
0.053188
0.05136
0.0479809
0.0457535
0.0458778
0.0469768
0.0463478
0.0420095
0.0337002
0.0221265
0.00816222
-0.00712457
-0.022501
-0.0370149
-0.049579
-0.0584398
-0.0618494
-0.0589669
-0.0498772
-0.0356102
-0.0183465
-0.000870697
0.0142447
0.0251131
0.0305603
0.0304425
0.0255271
0.0169443
0.00594759
0.00624124
0.0177192
0.0265298
0.0314163
0.0313478
0.0257191
0.0148358
-0.000140669
-0.0175837
-0.035216
-0.0503256
-0.0606829
-0.065186
-0.063467
-0.0558128
-0.0434605
-0.0279537
-0.0103354
0.00834365
0.0264057
0.0420168
0.053726
0.0607599
0.0634778
0.0637682
0.0642211
0.0662245
0.0684503
0.0679212
0.0624494
0.051749
0.0373966
0.0222403
0.0082928
-0.00522115
-0.0207323
-0.0389679
-0.0565629
-0.0680165
-0.0706973
-0.0670835
-0.0620991
-0.0589507
-0.0571137
-0.0541708
-0.0490334
-0.0430736
-0.0386627
-0.0368656
-0.0366838
-0.0366842
-0.0368668
-0.0386643
-0.0430751
-0.0490346
-0.0541716
-0.0571142
-0.058951
-0.0620991
-0.067083
-0.0706965
-0.0680156
-0.0565625
-0.0389683
-0.0207333
-0.00522205
0.00829277
0.0222418
0.0373996
0.0517531
0.0624538
0.0679251
0.0684532
0.0662262
0.0642213
0.0637669
0.0634747
0.060755
0.0537196
0.0420095
0.0263984
0.00833712
-0.0103405
-0.0279569
-0.0434618
-0.0558122
-0.0634649
-0.0651827
-0.0606792
-0.0503219
-0.0352131
-0.0175816
-0.000139576
0.0148361
0.0257189
0.0313475
0.0314161
0.0265298
0.0177193
0.00624133
0.00635639
0.0180509
0.0270104
0.0319049
0.0316545
0.0257012
0.0144613
-0.000895984
-0.0188779
-0.0373203
-0.0534658
-0.0650452
-0.070967
-0.0706963
-0.064097
-0.0519835
-0.0356843
-0.0161375
0.00555251
0.0272611
0.046354
0.0607599
0.0696074
0.0733842
0.0740148
0.0741455
0.0752811
0.0760036
0.073086
0.0644199
0.0504362
0.0336757
0.0175248
0.00390148
-0.00838447
-0.0222653
-0.0389382
-0.0552556
-0.065546
-0.0668804
-0.0617772
-0.0557661
-0.0529028
-0.0531537
-0.0539197
-0.0533151
-0.0516201
-0.050356
-0.0503366
-0.0508461
-0.0508466
-0.050338
-0.0503578
-0.0516218
-0.0533166
-0.0539208
-0.0531547
-0.0529037
-0.0557667
-0.0617775
-0.0668804
-0.0655462
-0.0552564
-0.0389399
-0.0222676
-0.00838658
0.00390033
0.0175251
0.0336777
0.0504395
0.0644238
0.0730901
0.0760075
0.0752844
0.0741479
0.0740158
0.0733833
0.0696045
0.060755
0.0463478
0.0272544
0.00554597
-0.0161432
-0.0356886
-0.051986
-0.0640977
-0.0706952
-0.0709645
-0.0650418
-0.0534622
-0.037317
-0.0188754
-0.00089443
0.0144618
0.0257011
0.0316543
0.0319048
0.0270105
0.018051
0.00635644
0.00627135
0.0178314
0.0267012
0.0314619
0.0308785
0.0242904
0.0121298
-0.00436784
-0.023639
-0.043419
-0.0607957
-0.0734458
-0.0803393
-0.0809228
-0.0748594
-0.062702
-0.0455886
-0.0243046
4.29879e-05
0.0249357
0.0469816
0.0634778
0.0733842
0.0772864
0.0772492
0.076173
0.0758331
0.0747909
0.0695924
0.0581964
0.0416844
0.0234464
0.00730391
-0.00491809
-0.0147286
-0.0255214
-0.0390986
-0.0528109
-0.0610722
-0.0606835
-0.0539573
-0.0466783
-0.0435389
-0.0450537
-0.0486761
-0.0519115
-0.0539621
-0.0554084
-0.0567785
-0.0577288
-0.0577295
-0.0567802
-0.0554105
-0.0539641
-0.0519132
-0.0486778
-0.0450554
-0.0435406
-0.0466798
-0.0539585
-0.0606845
-0.0610734
-0.0528128
-0.0391012
-0.0255245
-0.0147314
-0.00491984
0.00730362
0.0234476
0.041687
0.0581999
0.0695966
0.0747955
0.0758378
0.0761772
0.0772522
0.0772877
0.0733833
0.0634747
0.0469768
0.0249297
3.65491e-05
-0.0243107
-0.0455937
-0.0627056
-0.0748614
-0.0809231
-0.0803381
-0.0734436
-0.060793
-0.0434162
-0.0236363
-0.00436576
0.0121311
0.0242911
0.0308789
0.0314622
0.0267013
0.0178313
0.00627131
0.00598148
0.0169667
0.0252535
0.0293735
0.0279578
0.0201967
0.00650347
-0.011734
-0.0327102
-0.0539523
-0.0723841
-0.085631
-0.0927266
-0.0932104
-0.0867712
-0.0738953
-0.055611
-0.0325781
-0.00590462
0.0215806
0.0458812
0.0637682
0.0740148
0.0772492
0.0757197
0.0727223
0.0704305
0.0674593
0.0601705
0.0465741
0.0282877
0.00938038
-0.00600041
-0.016084
-0.0225537
-0.0291712
-0.0384136
-0.0483606
-0.0537672
-0.0512411
-0.0426838
-0.0337698
-0.0295549
-0.0311112
-0.0362017
-0.0420184
-0.0468432
-0.0503134
-0.0526179
-0.053773
-0.0537737
-0.0526199
-0.0503159
-0.0468456
-0.0420206
-0.0362039
-0.0311137
-0.0295574
-0.0337722
-0.0426857
-0.0512428
-0.0537692
-0.0483631
-0.0384168
-0.0291746
-0.0225567
-0.0160858
-0.00600088
0.00938125
0.0282897
0.0465771
0.0601745
0.0674641
0.0704358
0.0727276
0.0757243
0.0772522
0.0740158
0.0637669
0.0458778
0.0215756
-0.00591054
-0.0325841
-0.0556165
-0.0738997
-0.0867743
-0.0932122
-0.0927272
-0.0856306
-0.0723828
-0.0539504
-0.0327079
-0.0117316
0.00650563
0.0201984
0.027959
0.0293742
0.0252538
0.0169666
0.00598143
0.00549152
0.0154331
0.0225216
0.0252877
0.0223542
0.0128684
-0.00270701
-0.0227578
-0.0451745
-0.0673082
-0.086029
-0.0989828
-0.105276
-0.104599
-0.0968088
-0.0824661
-0.0625821
-0.0377757
-0.00920155
0.0200987
0.0457554
0.0642211
0.0741455
0.076173
0.0727223
0.0674962
0.0630699
0.0581435
0.0489587
0.0335776
0.0140248
-0.00512708
-0.0194818
-0.0272446
-0.0301085
-0.0320719
-0.0362826
-0.0417067
-0.0436817
-0.0387491
-0.0282696
-0.0174708
-0.011454
-0.0117862
-0.0167656
-0.0236268
-0.0300131
-0.034715
-0.0375246
-0.0387096
-0.0387104
-0.0375267
-0.0347177
-0.0300157
-0.0236294
-0.0167684
-0.0117893
-0.0114572
-0.0174737
-0.0282721
-0.0387513
-0.043684
-0.0417095
-0.0362857
-0.032075
-0.030111
-0.0272461
-0.0194821
-0.00512637
0.0140264
0.0335801
0.0489622
0.0581481
0.0630753
0.0675019
0.0727276
0.0761772
0.0741479
0.0642213
0.0457536
0.0200952
-0.00920625
-0.0377809
-0.0625871
-0.0824706
-0.0968126
-0.104602
-0.105279
-0.0989842
-0.0860294
-0.0673076
-0.045173
-0.0227557
-0.00270455
0.0128708
0.0223561
0.025289
0.0225223
0.0154334
0.0054916
0.00497629
0.0137823
0.0194648
0.0205487
0.0157715
0.00442241
-0.0128709
-0.0342532
-0.0573519
-0.079435
-0.097464
-0.10923
-0.113962
-0.111512
-0.101929
-0.0858753
-0.0643845
-0.0381064
-0.008283
0.0219231
0.0479809
0.0662245
0.0752811
0.0758331
0.0704305
0.0630699
0.0566083
0.04982
0.0389093
0.0220119
0.00144619
-0.0178567
-0.031297
-0.0369729
-0.036438
-0.033786
-0.0327781
-0.0333658
-0.0316906
-0.0243968
-0.0122446
0.000286492
0.00840973
0.0102271
0.00675977
0.000369669
-0.00632559
-0.0114713
-0.0144296
-0.0155443
-0.0155451
-0.0144316
-0.0114739
-0.00632825
0.000366932
0.0067567
0.0102236
0.00840617
0.000283317
-0.0122472
-0.024399
-0.0316928
-0.0333683
-0.0327808
-0.0337885
-0.0364399
-0.0369739
-0.0312971
-0.0178561
0.00144735
0.0220138
0.0389121
0.0498239
0.0566132
0.0630753
0.0704358
0.0758378
0.0752844
0.0662262
0.0479809
0.0219215
-0.00828573
-0.0381099
-0.0643883
-0.0858792
-0.101933
-0.111515
-0.113966
-0.109233
-0.0974659
-0.0794358
-0.0573516
-0.034252
-0.0128689
0.00442479
0.0157738
0.0205505
0.0194661
0.0137831
0.00497659
0.00470573
0.0128889
0.0176886
0.0175628
0.0114037
-0.00122023
-0.0194512
-0.0412584
-0.0641013
-0.0852362
-0.101812
-0.111883
-0.114873
-0.110797
-0.0998552
-0.0827488
-0.0604879
-0.0337497
-0.00384478
0.0260394
0.0513582
0.0684503
0.0760036
0.0747909
0.0674593
0.0581435
0.04982
0.0413221
0.0289104
0.010827
-0.0104194
-0.0296867
-0.0422469
-0.0460605
-0.0424397
-0.0354397
-0.0293335
-0.0250861
-0.019819
-0.0104681
0.00278815
0.0164562
0.0264383
0.030769