/*--------------------------------*- C++ -*----------------------------------*\
  =========                 |
  \\      /  F ield         | OpenFOAM: The Open Source CFD Toolbox
   \\    /   O peration     | Website:  https://openfoam.org
    \\  /    A nd           | Version:  10
     \\/     M anipulation  |
\*---------------------------------------------------------------------------*/
FoamFile
{
    format      ascii;
    class       volScalarField;
    location    "58";
    object      h;
}
// * * * * * * * * * * * * * * * * * * * * * * * * * * * * * * * * * * * * * //

dimensions      [0 1 0 0 0 0 0];

internalField   nonuniform List<scalar> 
10000
(
0.000592866
0.0019407
0.00338955
0.00433315
0.00435741
0.0037164
0.00276532
0.0013242
-0.000984395
-0.0039537
-0.00689003
-0.00936348
-0.011292
-0.0125376
-0.012915
-0.0125478
-0.011592
-0.00977533
-0.00686555
-0.00338393
-0.000308583
0.00187155
0.00341126
0.0048514
0.00642159
0.00776683
0.00803628
0.00662523
0.00394392
0.00115856
-0.000617581
-0.000974202
-0.000311706
0.000597224
0.00114884
0.00118338
0.00101783
0.000986595
0.00111354
0.00119233
0.000916348
7.89014e-05
-0.00119224
-0.00250668
-0.00340824
-0.00357919
-0.00299346
-0.00190659
-0.000776422
-7.92653e-05
-7.93384e-05
-0.000776618
-0.00190684
-0.00299369
-0.00357932
-0.00340823
-0.00250654
-0.00119202
7.91165e-05
0.0009165
0.0011924
0.00111354
0.000986569
0.00101779
0.00118329
0.00114859
0.000596735
-0.000312459
-0.000975115
-0.000618426
0.00115807
0.00394399
0.00662594
0.00803755
0.00776844
0.00642333
0.0048531
0.00341277
0.00187272
-0.000307855
-0.00338373
-0.0068659
-0.00977618
-0.0115933
-0.0125495
-0.012917
-0.0125397
-0.0112939
-0.0093649
-0.00689088
-0.00395387
-0.000983911
0.00132517
0.00276655
0.00371772
0.00435871
0.00433428
0.00339037
0.00194116
0.000593011
0.0019407
0.00625819
0.0107756
0.0136954
0.0138042
0.0118486
0.00888818
0.00444764
-0.00251855
-0.011376
-0.0200999
-0.0274374
-0.033159
-0.0368922
-0.0381301
-0.0372306
-0.0346149
-0.0294769
-0.0211527
-0.0111817
-0.00242572
0.00369191
0.00795189
0.0120072
0.0166035
0.0207369
0.0219178
0.0183427
0.0111317
0.00360515
-0.00106401
-0.00173278
0.000407305
0.00311229
0.00466477
0.00466309
0.00408091
0.00392948
0.00430012
0.00459589
0.00392468
0.00167766
-0.00179842
-0.00541133
-0.00789438
-0.00837221
-0.00677638
-0.0038144
-0.000738445
0.00115767
0.00115749
-0.000738944
-0.00381507
-0.00677702
-0.00837262
-0.00789443
-0.00541098
-0.00179778
0.00167842
0.00392535
0.00459634
0.00430031
0.00392944
0.00408066
0.00466259
0.00466386
0.0031108
0.00040524
-0.00173516
-0.00106613
0.00360399
0.0111321
0.0183448
0.0219212
0.0207412
0.0166081
0.0120118
0.00795598
0.00369509
-0.00242383
-0.0111814
-0.0211541
-0.0294796
-0.0346188
-0.0372355
-0.0381356
-0.0368979
-0.0331641
-0.0274413
-0.0201022
-0.0113764
-0.00251705
0.00445052
0.00889182
0.0118526
0.0138081
0.0136988
0.0107781
0.00625965
0.00194116
0.00338955
0.0107756
0.0182811
0.0230356
0.0231404
0.0197907
0.0147052
0.00724945
-0.00409782
-0.0182882
-0.0321659
-0.0437828
-0.0528107
-0.0587485
-0.0608909
-0.0597831
-0.0559763
-0.0481631
-0.0353452
-0.0200069
-0.00668371
0.00238531
0.00852805
0.0145516
0.0218285
0.0288435
0.0316345
0.0272514
0.017261
0.00670243
0.000411031
7.60666e-05
0.00377318
0.00798489
0.0100994
0.00963455
0.0082442
0.00762588
0.00800226
0.00846284
0.0076171
0.00448638
-0.00046288
-0.00563896
-0.00921356
-0.00993632
-0.00771547
-0.00357533
0.000717062
0.0033623
0.00336208
0.000716443
-0.0035762
-0.00771638
-0.00993699
-0.00921377
-0.00563856
-0.000461901
0.00448773
0.0076185
0.00846393
0.00800279
0.00762575
0.00824344
0.00963323
0.0100976
0.00798246
0.00377031
7.31269e-05
0.000408677
0.00670146
0.017262
0.0272544
0.0316393
0.0288494
0.0218349
0.014558
0.00853392
0.00238995
-0.00668106
-0.0200068
-0.0353477
-0.0481678
-0.0559827
-0.0597906
-0.0608993
-0.0587569
-0.0528181
-0.0437884
-0.0321692
-0.0182886
-0.00409552
0.00725389
0.0147109
0.019797
0.0231467
0.0230413
0.0182854
0.0107781
0.00339037
0.00433315
0.0136954
0.0230356
0.028697
0.0283289
0.0235162
0.0165204
0.00666652
-0.00785726
-0.0257133
-0.0430047
-0.0573375
-0.0683737
-0.0756237
-0.078343
-0.0771742
-0.0725956
-0.0628498
-0.046746
-0.0275739
-0.0111769
-0.000394713
0.00666307
0.0139379
0.0234688
0.0333087
0.0381964
0.0341267
0.0228427
0.0106378
0.00361298
0.00386347
0.00885322
0.014018
0.0160508
0.014501
0.0116619
0.00990984
0.00970467
0.00995014
0.00888404
0.00520514
-0.000615535
-0.00670564
-0.0109275
-0.0118246
-0.00928714
-0.00454164
0.000367218
0.0033991
0.00339889
0.000366642
-0.00454247
-0.00928803
-0.0118253
-0.0109278
-0.00670524
-0.000614455
0.00520671
0.00888572
0.00995145
0.00970519
0.00990936
0.0116604
0.0144988
0.0160481
0.0140151
0.00885027
0.00386092
0.00361142
0.0106378
0.0228448
0.0341307
0.0382019
0.0333151
0.0234757
0.013945
0.00666991
-0.000389044
-0.0111736
-0.0275737
-0.0467492
-0.0628559
-0.0726036
-0.0771835
-0.0783531
-0.0756338
-0.0683825
-0.0573443
-0.0430087
-0.0257141
-0.00785487
0.00667154
0.0165271
0.0235238
0.0283368
0.0287043
0.0230413
0.0136988
0.00433428
0.00435741
0.0138042
0.0231404
0.0283289
0.0268764
0.0206748
0.0123397
0.00122575
-0.0146135
-0.033757
-0.0520719
-0.0670368
-0.0783946
-0.0858071
-0.0886632
-0.08761
-0.0828429
-0.0722279
-0.0545215
-0.033561
-0.0159358
-0.00473873
0.00248471
0.010656
0.0223353
0.0350631
0.0423908
0.0393912
0.0278093
0.0148479
0.00760497
0.00853946
0.0146515
0.0204977
0.0221615
0.0192229
0.0144923
0.0109931
0.00954331
0.00900227
0.00735847
0.00304314
-0.00353139
-0.0103187
-0.0149769
-0.0158926
-0.0129243
-0.00750353
-0.00193683
0.00151908
0.00151894
-0.00193722
-0.00750405
-0.0129248
-0.0158928
-0.0149768
-0.0103182
-0.00353049
0.00304423
0.00735945
0.00900278
0.00954304
0.010992
0.0144903
0.0192204
0.0221589
0.0204951
0.0146492
0.00853792
0.00760465
0.0148493
0.0278126
0.0393959
0.0423965
0.0350692
0.0223415
0.0106626
0.0024915
-0.00473266
-0.0159318
-0.0335604
-0.0545247
-0.0722343
-0.0828514
-0.0876199
-0.0886739
-0.0858177
-0.0784039
-0.0670441
-0.0520766
-0.0337586
-0.0146118
0.00123024
0.0123462
0.0206825
0.0268847
0.0283368
0.0231467
0.0138081
0.00435871
0.0037164
0.0118486
0.0197907
0.0235162
0.0206748
0.013341
0.00425293
-0.00714918
-0.0227617
-0.0412394
-0.0586664
-0.0726579
-0.0830665
-0.0898018
-0.092569
-0.0919888
-0.0878521
-0.0777767
-0.0605897
-0.0403002
-0.0235144
-0.0131235
-0.00614091
0.00302154
0.0171163
0.0329842
0.0431011
0.0418408
0.0309157
0.0181953
0.0115574
0.0137771
0.0214882
0.028466
0.0301975
0.0262304
0.0197363
0.0143164
0.0112214
0.00936552
0.00658571
0.00113775
-0.00657466
-0.0142716
-0.0193374
-0.0199427
-0.0159221
-0.00905721
-0.00212759
0.00218864
0.00218862
-0.00212762
-0.00905715
-0.0159219
-0.0199423
-0.0193367
-0.0142709
-0.00657412
0.00113789
0.0065853
0.00936448
0.0112199
0.0143146
0.0197344
0.0262288
0.0301961
0.0284649
0.0214874
0.0137768
0.0115582
0.0181976
0.0309197
0.041846
0.0431067
0.0329895
0.0171212
0.00302651
-0.00613558
-0.0131184
-0.0235107
-0.0402994
-0.0605925
-0.0777827
-0.0878601
-0.0919981
-0.092579
-0.0898117
-0.0830755
-0.0726651
-0.0586713
-0.0412417
-0.022761
-0.00714582
0.00425831
0.0133478
0.0206825
0.0235238
0.019797
0.0118526
0.00371772
0.00276532
0.00888818
0.0147052
0.0165204
0.0123397
0.00425293
-0.00513475
-0.0162615
-0.0307625
-0.0474291
-0.0628735
-0.0750047
-0.083734
-0.0892511
-0.0917435
-0.0918468
-0.0889493
-0.0806068
-0.0658378
-0.04843
-0.0342809
-0.025662
-0.0191802
-0.009006
0.00744794
0.0262432
0.0390648
0.0399594
0.030668
0.0194596
0.0146695
0.0192191
0.0293988
0.0383025
0.0408804
0.0366198
0.028899
0.0217574
0.0168498
0.0131858
0.00855244
0.00120489
-0.00828709
-0.0172553
-0.0227028
-0.0225599
-0.0167233
-0.00752089
0.0015566
0.00719824
0.00719836
0.00155695
-0.0075203
-0.0167225
-0.0225589
-0.0227019
-0.0172547
-0.008287
0.0012042
0.00855088
0.0131835
0.0168472
0.021755
0.0288975
0.0366194
0.040881
0.0383035
0.0293999
0.0192201
0.0146709
0.0194623
0.0306722
0.0399648
0.0390702
0.0262477
0.00745115
-0.00900348
-0.0191775
-0.0256592
-0.0342788
-0.0484298
-0.0658402
-0.0806117
-0.088956
-0.0918545
-0.0917519
-0.0892596
-0.0837418
-0.0750112
-0.0628783
-0.0474318
-0.0307629
-0.0162595
-0.00513086
0.00425831
0.0123462
0.0165271
0.0147109
0.00889182
0.00276656
0.0013242
0.00444764
0.00724945
0.00666652
0.00122575
-0.00714918
-0.0162615
-0.0264675
-0.0389994
-0.0528243
-0.0653056
-0.0747595
-0.0810941
-0.0847633
-0.0865359
-0.0871141
-0.0855443
-0.0794933
-0.0682655
-0.0551109
-0.0446849
-0.0384255
-0.0328112
-0.0222423
-0.00451941
0.0158614
0.0303638
0.0332132
0.026227
0.0176485
0.0157573
0.0233383
0.0363849
0.0475481
0.05144
0.0475116
0.0391639
0.0306241
0.0238182
0.0178772
0.0106919
0.000766201
-0.0109633
-0.0213603
-0.0270738
-0.0259046
-0.0179532
-0.00618038
0.00518378
0.0122072
0.0122074
0.00518415
-0.00617987
-0.0179527
-0.0259042
-0.0270735
-0.0213602
-0.0109636
0.000765267
0.0106902
0.0178748
0.0238156
0.0306218
0.0391628
0.0475121
0.0514421
0.047551
0.0363878
0.0233407
0.0157595
0.0176513
0.0262311
0.0332183
0.0303689
0.0158651
-0.00451771
-0.0222422
-0.0328116
-0.0384257
-0.0446851
-0.0551118
-0.0682676
-0.0794967
-0.0855487
-0.0871191
-0.0865416
-0.0847694
-0.0811001
-0.0747649
-0.06531
-0.0528274
-0.0390007
-0.026467
-0.0162595
-0.00714583
0.00123024
0.00667154
0.00725389
0.00445052
0.00132518
-0.000984395
-0.00251855
-0.00409782
-0.00785726
-0.0146135
-0.0227617
-0.0307625
-0.0389994
-0.0482791
-0.0578307
-0.0659794
-0.0716153
-0.0746675
-0.0758311
-0.0764497
-0.0772686
-0.0770134
-0.0735326
-0.0664301
-0.0582073
-0.0520111
-0.0484604
-0.0442657
-0.0344618
-0.0172582
0.00277763
0.0175862
0.0220059
0.0178212
0.0126675
0.0141855
0.024794
0.0403904
0.0535968
0.0589738
0.0559327
0.0476534
0.0382356
0.0297202
0.0214227
0.0115174
-0.00103625
-0.0148714
-0.0265046
-0.0324161
-0.0304482
-0.0209684
-0.00742517
0.0054618
0.0133892
0.0133891
0.00546155
-0.00742566
-0.0209692
-0.0304492
-0.0324171
-0.0265055
-0.014872
-0.00103681
0.0115167
0.0214215
0.0297186
0.0382342
0.0476527
0.0559336
0.0589764
0.0536005
0.0403943
0.0247975
0.0141884
0.0126704
0.0178247
0.0220101
0.0175902
0.00278025
-0.0172578
-0.0344635
-0.0442684
-0.0484631
-0.0520134
-0.0582093
-0.0664319
-0.0735344
-0.0770152
-0.0772705
-0.0764521
-0.0758343
-0.0746714
-0.0716194
-0.0659833
-0.0578341
-0.0482815
-0.0390007
-0.0307629
-0.022761
-0.0146118
-0.00785487
-0.00409551
-0.00251705
-0.000983901
-0.0039537
-0.011376
-0.0182882
-0.0257133
-0.033757
-0.0412394
-0.0474291
-0.0528243
-0.0578307
-0.0620143
-0.0648118
-0.0658668
-0.0652204
-0.0637651
-0.0632827
-0.0644478
-0.0656543
-0.0649315
-0.0621429
-0.0589493
-0.0569602
-0.0561228
-0.053692
-0.0455948
-0.030333
-0.0120118
0.00234494
0.0083569
0.00747917
0.00616127
0.0109958
0.0240449
0.0414946
0.056408
0.0635069
0.0620454
0.0547036
0.0451883
0.0355877
0.0255196
0.0135555
-0.000872186
-0.0161309
-0.0286764
-0.0350253
-0.0331255
-0.0234914
-0.00970589
0.00340739
0.0114775
0.011477
0.00340608
-0.00970793
-0.0234939
-0.0331282
-0.0350277
-0.0286781
-0.0161317
-0.00087208
0.0135561
0.0255204
0.0355882
0.0451885
0.054704
0.0620466
0.0635094
0.0564117
0.0414988
0.0240489
0.0109992
0.00616416
0.00748191
0.00835963
0.00234721
-0.0120108
-0.0303341
-0.0455977
-0.0536959
-0.056127
-0.0569638
-0.0589519
-0.0621445
-0.0649321
-0.065654
-0.0644469
-0.0632821
-0.0637654
-0.0652219
-0.0658693
-0.064815
-0.0620178
-0.0578341
-0.0528274
-0.0474318
-0.0412417
-0.0337586
-0.0257141
-0.0182886
-0.0113764
-0.00395386
-0.00689003
-0.0200999
-0.0321659
-0.0430047
-0.0520719
-0.0586664
-0.0628735
-0.0653056
-0.0659794
-0.0648118
-0.0623747
-0.0591577
-0.0553681
-0.0519625
-0.0508744
-0.0525424
-0.0550829
-0.05678
-0.0577815
-0.0589636
-0.0605443
-0.0619609
-0.0611718
-0.0551024
-0.0424327
-0.0264357
-0.0128175
-0.00522993
-0.00282656
-0.000650288
0.00677408
0.0213806
0.0400426
0.0565836
0.065903
0.0668603
0.0613962
0.0526882
0.0429042
0.0320734
0.0191696
0.00395765
-0.0119397
-0.0252047
-0.0324832
-0.0317455
-0.0234273
-0.0108717
0.0013059
0.00885774
0.00885698
0.00130375
-0.0108749
-0.0234311
-0.0317493
-0.0324864
-0.0252068
-0.0119405
0.00395833
0.0191714
0.0320758
0.0429067
0.0526904
0.0613981
0.0668624
0.0659057
0.0565869
0.0400464
0.0213842
0.00677725
-0.000647839
-0.00282478
-0.00522881
-0.0128173
-0.0264367
-0.0424352
-0.0551062
-0.0611763
-0.0619653
-0.0605481
-0.0589664
-0.0577831
-0.0567802
-0.0550816
-0.0525398
-0.0508714
-0.0519602
-0.0553672
-0.0591583
-0.0623767
-0.064815
-0.0659833
-0.06531
-0.0628782
-0.0586713
-0.0520766
-0.0430087
-0.0321691
-0.0201022
-0.00689086
-0.00936348
-0.0274374
-0.0437828
-0.0573375
-0.0670368
-0.0726579
-0.0750047
-0.0747595
-0.0716153
-0.0658668
-0.0591577
-0.0527961
-0.0471056
-0.0428508
-0.0417067
-0.0437069
-0.0468672
-0.0499404
-0.0534666
-0.0576909
-0.0616821
-0.0645124
-0.0649028
-0.0608357
-0.0511715
-0.0381839
-0.0261327
-0.017966
-0.0134702
-0.0091065
-0.00031666
0.0149535
0.0344648
0.0528516
0.0650394
0.0692312
0.0664764
0.0593728
0.0501939
0.0394177
0.0263835
0.0110825
-0.00500983
-0.018908
-0.0273608
-0.0282865
-0.0219401
-0.0112445
-0.00048525
0.00626376
0.00626298
-0.000487458
-0.0112478
-0.021944
-0.0282904
-0.027364
-0.0189101
-0.00501035
0.0110835
0.0263858
0.039421
0.0501975
0.0593765
0.06648
0.0692346
0.0650427
0.0528549
0.0344678
0.0149561
-0.000314657
-0.00910518
-0.0134696
-0.0179663
-0.0261341
-0.0381865
-0.0511753
-0.0608402
-0.0649073
-0.0645164
-0.0616853
-0.0576932
-0.0534679
-0.0499403
-0.0468656
-0.0437037
-0.0417025
-0.0428467
-0.0471025
-0.0527947
-0.0591583
-0.0658693
-0.0716194
-0.0747649
-0.0750112
-0.0726651
-0.0670441
-0.0573443
-0.0437883
-0.0274413
-0.00936489
-0.011292
-0.033159
-0.0528107
-0.0683737
-0.0783946
-0.0830665
-0.083734
-0.0810941
-0.0746675
-0.0652204
-0.0553681
-0.0471056
-0.0407332
-0.036534
-0.0355316
-0.0372875
-0.0400322
-0.0432743
-0.0480099
-0.0539282
-0.0591493
-0.0625078
-0.0635608
-0.0614819
-0.0554658
-0.0467374
-0.037932
-0.0310944
-0.0263772
-0.0213801
-0.0122805
0.00312692
0.0234224
0.0439466
0.0595277
0.0675642
0.0681369
0.0631894
0.0550237
0.0445364
0.0314718
0.0161408
-1.08113e-05
-0.014245
-0.0233724
-0.0253293
-0.0203224
-0.0109351
-0.00119703
0.00493408
0.00493354
-0.00119857
-0.0109375
-0.0203252
-0.0253321
-0.0233748
-0.0142464
-1.08286e-05
0.0161421
0.0314742
0.0445397
0.0550275
0.0631936
0.0681412
0.0675685
0.0595317
0.04395
0.0234248
0.00312816
-0.0122803
-0.0213806
-0.0263782
-0.031096
-0.0379343
-0.0467408
-0.0554702
-0.0614866
-0.0635652
-0.0625112
-0.0591515
-0.0539293
-0.0480101
-0.0432737
-0.0400306
-0.0372844
-0.0355271
-0.0365289
-0.0407286
-0.0471025
-0.0553672
-0.0652219
-0.0746714
-0.0811001
-0.0837418
-0.0830755
-0.0784039
-0.0683825
-0.0528181
-0.0331641
-0.0112939
-0.0125376
-0.0368922
-0.0587485
-0.0756237
-0.0858071
-0.0898018
-0.0892511
-0.0847633
-0.0758311
-0.0637651
-0.0519625
-0.0428508
-0.036534
-0.032646
-0.0313988
-0.0320395
-0.0334324
-0.036071
-0.0412733
-0.0480348
-0.0536206
-0.0567736
-0.0580312
-0.0579404
-0.0562031
-0.0529119
-0.0487958
-0.0446962
-0.0408701
-0.0359228
-0.0268334
-0.0114334
0.00952472
0.0320703
0.051006
0.0629291
0.0669145
0.0641538
0.056861
0.0463461
0.0329145
0.0174145
0.00146562
-0.0123507
-0.0209495
-0.0224571
-0.0172652
-0.00782769
0.00189963
0.00793889
0.00793868
0.00189902
-0.00782864
-0.0172663
-0.0224582
-0.0209503
-0.0123508
0.00146645
0.0174163
0.0329171
0.0463492
0.0568645
0.0641575
0.0669185
0.0629332
0.05101
0.0320735
0.00952663
-0.0114332
-0.0268349
-0.0359252
-0.0408729
-0.044699
-0.0487986
-0.0529151
-0.056207
-0.0579447
-0.0580352
-0.0567766
-0.053622
-0.0480349
-0.0412724
-0.0360696
-0.0334306
-0.0320369
-0.0313949
-0.0326411
-0.0365289
-0.0428467
-0.0519602
-0.0637654
-0.0758343
-0.0847694
-0.0892596
-0.0898117
-0.0858176
-0.0756337
-0.0587569
-0.0368979
-0.0125397
-0.012915
-0.0381301
-0.0608909
-0.078343
-0.0886632
-0.092569
-0.0917435
-0.0865359
-0.0764497
-0.0632827
-0.0508744
-0.0417067
-0.0355316
-0.0313988
-0.0288965
-0.0273467
-0.0266644
-0.0283805
-0.0337804
-0.0408832
-0.0461767
-0.0485412
-0.049673
-0.051558
-0.0543763
-0.0568817
-0.0576411
-0.0561907
-0.0529733
-0.0478181
-0.0387704
-0.023853
-0.00311472
0.0203683
0.0416191
0.0565195
0.0631297
0.0618513
0.0547975
0.0438001
0.0299148
0.0146346
-0.000235376
-0.0123582
-0.0189161
-0.0183909
-0.0115021
-0.000710254
0.00997599
0.0164442
0.0164443
0.00997621
-0.000709923
-0.0115017
-0.0183903
-0.0189153
-0.0123569
-0.000233534
0.014637
0.0299179
0.0438034
0.0548008
0.0618544
0.0631327
0.0565224
0.0416218
0.0203706
-0.00311359
-0.0238536
-0.0387728
-0.0478219
-0.0529775
-0.0561946
-0.0576442
-0.0568842
-0.0543787
-0.0515607
-0.0496759
-0.0485436
-0.0461779
-0.0408829
-0.0337788
-0.0283784
-0.0266623
-0.0273445
-0.0288936
-0.0313949
-0.0355271
-0.0417025
-0.0508714
-0.0632821
-0.0764522
-0.0865416
-0.0917518
-0.092579
-0.0886739
-0.0783531
-0.0608993
-0.0381356
-0.012917
-0.0125478
-0.0372306
-0.0597831
-0.0771742
-0.08761
-0.0919888
-0.0918468
-0.0871141
-0.0772686
-0.0644478
-0.0525424
-0.0437069
-0.0372875
-0.0320395
-0.0273467
-0.0230037
-0.0201446
-0.021099
-0.0266516
-0.0336436
-0.038025
-0.039165
-0.0400218
-0.0438053
-0.050859
-0.0583702
-0.0627645
-0.0625952
-0.0589497
-0.0532632
-0.0448123
-0.0317001
-0.0129916
0.00946223
0.0311713
0.0473962
0.0552249
0.0543621
0.0469354
0.0354399
0.0217578
0.00791317
-0.00432436
-0.0131273
-0.0162022
-0.0125156
-0.00312313
0.00953671
0.021472
0.0285064
0.0285067
0.0214727
0.00953786
-0.00312171
-0.012514
-0.0162003
-0.0131251
-0.00432167
0.00791641
0.0217615
0.0354438
0.046939
0.0543649
0.0552269
0.0473974
0.0311719
0.00946247
-0.0129919
-0.0317015
-0.0448151
-0.0532673
-0.0589546
-0.0625998
-0.0627679
-0.0583721
-0.0508597
-0.0438059
-0.0400228
-0.0391664
-0.0380259
-0.0336434
-0.02665
-0.0210965
-0.0201421
-0.0230015
-0.0273445
-0.0320369
-0.0372844
-0.0437037
-0.0525398
-0.0644469
-0.0772705
-0.0871191
-0.0918545
-0.0919981
-0.0876199
-0.0771835
-0.0597906
-0.0372355
-0.0125495
-0.011592
-0.0346149
-0.0559763
-0.0725956
-0.0828429
-0.0878521
-0.0889493
-0.0855443
-0.0770134
-0.0656543
-0.0550829
-0.0468672
-0.0400322
-0.0334324
-0.0266644
-0.0201446
-0.015974
-0.0167644
-0.0223939
-0.028608
-0.0312935
-0.0307171
-0.0310407
-0.0362371
-0.0463783
-0.0570594
-0.0630009
-0.0624253
-0.0575927
-0.0517218
-0.045156
-0.0357024
-0.021104
-0.00176175
0.0184635
0.0343104
0.0420364
0.0408465
0.0330022
0.0216803
0.00947485
-0.00132937
-0.0092855
-0.0133272
-0.0119117
-0.00458272
0.0073161
0.0214918
0.0342139
0.041516
0.0415163
0.0342148
0.0214932
0.0073177
-0.0045809
-0.0119096
-0.0133246
-0.00928233
-0.00132559
0.00947907
0.0216846
0.033006
0.0408493
0.0420377
0.0343102
0.0184622
-0.00176378
-0.0211063
-0.0357048
-0.0451588
-0.0517255
-0.0575971
-0.0624297
-0.0630044
-0.0570611
-0.0463781
-0.0362359
-0.0310397
-0.0307169
-0.0312938
-0.0286079
-0.0223927
-0.016762
-0.0159712
-0.0201421
-0.0266623
-0.0334306
-0.0400306
-0.0468656
-0.0550815
-0.065654
-0.0770152
-0.0855486
-0.0889559
-0.0878601
-0.0828514
-0.0726036
-0.0559826
-0.0346188
-0.0115933
-0.00977533
-0.0294769
-0.0481631
-0.0628498
-0.0722279
-0.0777767
-0.0806068
-0.0794933
-0.0735326
-0.0649315
-0.05678
-0.0499404
-0.0432743
-0.036071
-0.0283805
-0.021099
-0.0167644
-0.0177432
-0.0229061
-0.0273448
-0.0274584
-0.024647
-0.0239668
-0.029587
-0.0410205
-0.0526195
-0.0581688
-0.0561996
-0.0503221
-0.0452463
-0.0419265
-0.0375148
-0.028346
-0.0134375
0.00397331
0.0182652
0.0251185
0.023454
0.0156841
0.00551804
-0.00398448
-0.0105628
-0.0132812
-0.0119285
-0.005796
0.00499681
0.0189142
0.0339335
0.0468022
0.0540008
0.054001
0.0468028
0.0339344
0.0189154
0.00499833
-0.00579405
-0.011926
-0.0132781
-0.0105591
-0.00398043
0.00552207
0.0156876
0.0234565
0.0251195
0.0182644
0.00397085
-0.013441
-0.0283498
-0.0375183
-0.0419295
-0.0452491
-0.0503252
-0.0562031
-0.058172
-0.0526213
-0.0410203
-0.0295851
-0.0239644
-0.0246452
-0.0274576
-0.0273445
-0.0229054
-0.0177415
-0.016762
-0.0210965
-0.0283784
-0.0360696
-0.0432737
-0.0499403
-0.0567802
-0.0649321
-0.0735344
-0.0794967
-0.0806117
-0.0777826
-0.0722343
-0.0628559
-0.0481678
-0.0294796
-0.00977619
-0.00686555
-0.0211527
-0.0353452
-0.046746
-0.0545215
-0.0605897
-0.0658378
-0.0682655
-0.0664301
-0.0621429
-0.0577815
-0.0534666
-0.0480099
-0.0412733
-0.0337804
-0.0266516
-0.0223939
-0.0229061
-0.0263705
-0.0279004
-0.0248417
-0.01962
-0.0176575
-0.0228291
-0.0340746
-0.0450959
-0.0494906
-0.0463766
-0.0404013
-0.0371419
-0.0377264
-0.038594
-0.0349391
-0.0247047
-0.0105914
0.00160631
0.00723719
0.00509246
-0.00229814
-0.010859
-0.0172583
-0.0194342
-0.0170281
-0.0106517
-0.000377132
0.0132248
0.0285883
0.0440215
0.0567711
0.0637637
0.0637637
0.0567713
0.0440219
0.0285889
0.0132259
-0.000375568
-0.0106497
-0.0170257
-0.0194314
-0.0172553
-0.010856
-0.00229552
0.00509435
0.00723789
0.00160547
-0.0105939
-0.0247085
-0.0349434
-0.038598
-0.0377295
-0.0371441
-0.0404032
-0.0463786
-0.0494927
-0.0450974
-0.0340747
-0.0228276
-0.0176548
-0.0196173
-0.0248398
-0.0278994
-0.02637
-0.0229054
-0.0223927
-0.02665
-0.0337788
-0.0412724
-0.0480102
-0.0534679
-0.0577831
-0.0621445
-0.0664319
-0.0682676
-0.0658402
-0.0605924
-0.0545247
-0.0467492
-0.0353477
-0.0211541
-0.00686591
-0.00338393
-0.0111817
-0.0200069
-0.0275739
-0.033561
-0.0403002
-0.04843
-0.0551109
-0.0582073
-0.0589493
-0.0589636
-0.0576909
-0.0539282
-0.0480348
-0.0408832
-0.0336436
-0.028608
-0.0273448
-0.0279004
-0.026023
-0.0201194
-0.0132035
-0.0104854
-0.0152582
-0.0260606
-0.036468
-0.0402922
-0.03708
-0.0319484
-0.0307776
-0.0347526
-0.0398928
-0.0407048
-0.0344172
-0.0232985
-0.0131927
-0.0089549
-0.0118669
-0.0193017
-0.0268543
-0.0309052
-0.029576
-0.0230352
-0.0126151
0.000920647
0.0166572
0.033097
0.0488335
0.0615068
0.0683782
0.0683782
0.0615068
0.0488336
0.0330973
0.0166578
0.000921434
-0.0126141
-0.0230341
-0.0295748
-0.0309039
-0.0268529
-0.0193005
-0.0118659
-0.00895469
-0.0131935
-0.0233004
-0.0344202
-0.0407085
-0.0398963
-0.0347553
-0.0307793
-0.0319494
-0.0370808
-0.0402931
-0.0364689
-0.0260608
-0.0152574
-0.0104834
-0.0132008
-0.0201168
-0.0260212
-0.0278994
-0.0273445
-0.0286079
-0.0336434
-0.0408829
-0.0480349
-0.0539293
-0.0576932
-0.0589664
-0.0589519
-0.0582092
-0.0551118
-0.0484298
-0.0402994
-0.0335604
-0.0275737
-0.0200068
-0.0111814
-0.00338374
-0.000308583
-0.00242572
-0.00668371
-0.0111769
-0.0159358
-0.0235144
-0.0342809
-0.0446849
-0.0520111
-0.0569602
-0.0605443
-0.0616821
-0.0591493
-0.0536206
-0.0461767
-0.038025
-0.0312935
-0.0274584
-0.0248417
-0.0201194
-0.0125773
-0.00529208
-0.00286015
-0.00792916
-0.0188267
-0.0292557
-0.0332722
-0.0305248
-0.0261651
-0.026147
-0.0319143
-0.039517
-0.0431878
-0.0397062
-0.0309667
-0.0227922
-0.0202072
-0.0245665
-0.0331431
-0.0411502
-0.0445251
-0.0413941
-0.0322535
-0.0189755
-0.00297961
0.0144168
0.0317019
0.0476165
0.0601261
0.0668431
0.0668433
0.0601264
0.0476168
0.0317021
0.0144168
-0.00297994
-0.018976
-0.032254
-0.0413946
-0.0445255
-0.0411505
-0.0331433
-0.0245668
-0.0202077
-0.0227931
-0.0309682
-0.0397082
-0.0431902
-0.0395193
-0.0319161
-0.0261482
-0.0261656
-0.0305248
-0.0332722
-0.0292557
-0.0188266
-0.00792865
-0.00285896
-0.00529009
-0.0125747
-0.0201168
-0.0248398
-0.0274576
-0.0312938
-0.0380259
-0.0461778
-0.053622
-0.0591515
-0.0616853
-0.0605481
-0.0569638
-0.0520134
-0.0446851
-0.0342788
-0.0235107
-0.0159318
-0.0111736
-0.00668107
-0.00242384
-0.000307865
0.00187155
0.00369191
0.00238531
-0.000394713
-0.00473873
-0.0131235
-0.025662
-0.0384255
-0.0484604
-0.0561228
-0.0619609
-0.0645124
-0.0625078
-0.0567736
-0.0485412
-0.039165
-0.0307171
-0.024647
-0.01962
-0.0132035
-0.00529208
0.00133181
0.00282772
-0.00287365
-0.0139945
-0.0244061
-0.0283131
-0.0252922
-0.0204134
-0.019763
-0.0253293
-0.0335476
-0.0386247
-0.0370329
-0.0303029
-0.0241665
-0.0237602
-0.0304617
-0.0414249
-0.0514565
-0.0559377
-0.0528343
-0.0427583
-0.027926
-0.0103907
0.00803767
0.0257163
0.0414016
0.0533832
0.059739
0.0597391
0.0533835
0.0414018
0.0257161
0.00803693
-0.010392
-0.0279278
-0.0427604
-0.0528365
-0.0559398
-0.0514583
-0.0414264
-0.0304628
-0.0237611
-0.0241675
-0.0303039
-0.037034
-0.0386258
-0.0335485
-0.02533
-0.0197635
-0.0204136
-0.0252921
-0.0283127
-0.0244054
-0.0139937
-0.0028729
0.0028285
0.00133299
-0.00529009
-0.0132008
-0.0196173
-0.0246452
-0.0307169
-0.0391664
-0.0485436
-0.0567766
-0.0625112
-0.0645164
-0.0619653
-0.056127
-0.0484631
-0.0384257
-0.0256592
-0.0131184
-0.00473266
-0.000389055
0.00238993
0.00369508
0.00187271
0.00341126
0.00795189
0.00852805
0.00666307
0.00248471
-0.00614091
-0.0191802
-0.0328112
-0.0442657
-0.053692
-0.0611718
-0.0649028
-0.0635608
-0.0580312
-0.049673
-0.0400218
-0.0310407
-0.0239668
-0.0176575
-0.0104854
-0.00286015
0.00282772
0.0035253
-0.00226741
-0.0126695
-0.0217735
-0.0240326
-0.0190963
-0.0120469
-0.0091546
-0.0130116
-0.0205433
-0.0260593
-0.0258513
-0.021114
-0.0173953
-0.0197854
-0.0295335
-0.0436413
-0.0565549
-0.0631499
-0.0612642
-0.051595
-0.0366022
-0.0188971
-0.000680112
0.0163788
0.0310764
0.0420385
0.0478154
0.0478154
0.0420382
0.031076
0.016378
-0.000681429
-0.0188991
-0.0366049
-0.0515982
-0.0612677
-0.0631533
-0.0565579
-0.0436436
-0.029535
-0.0197863
-0.017396
-0.0211146
-0.0258519
-0.0260596
-0.0205432
-0.0130111
-0.00915404
-0.0120465
-0.019096
-0.0240322
-0.0217727
-0.0126682
-0.00226615
0.00352625
0.0028285
-0.00285896
-0.0104834
-0.0176548
-0.0239644
-0.0310397
-0.0400228
-0.0496759
-0.0580352
-0.0635652
-0.0649073
-0.0611763
-0.0536959
-0.0442684
-0.0328116
-0.0191775
-0.00613558
0.0024915
0.0066699
0.0085339
0.00795597
0.00341276
0.0048514
0.0120072
0.0145516
0.0139379
0.010656
0.00302154
-0.009006
-0.0222423
-0.0344618
-0.0455948
-0.0551024
-0.0608357
-0.0614819
-0.0579404
-0.051558
-0.0438053
-0.0362371
-0.029587
-0.0228291
-0.0152582
-0.00792916
-0.00287365
-0.00226741
-0.00695717
-0.0149996
-0.0209677
-0.0199047
-0.0117888
-0.00172253
0.00400481
0.00239404
-0.00392287
-0.0094753
-0.0104995
-0.00786109
-0.00679026
-0.0121553
-0.0249623
-0.0420881
-0.0577361
-0.0664629
-0.0661644
-0.0577378
-0.0438809
-0.027646
-0.011358
0.0035841
0.0161958
0.0254822
0.0304077
0.0304074
0.0254815
0.0161947
0.00358259
-0.01136
-0.0276485
-0.0438842
-0.0577417
-0.0661686
-0.066467
-0.0577396
-0.0420906
-0.0249637
-0.0121559
-0.00679044
-0.00786123
-0.0104997
-0.00947532
-0.00392242
0.00239507
0.00400611
-0.00172146
-0.0117882
-0.0199044
-0.0209671
-0.0149985
-0.0069557
-0.00226615
-0.0028729
-0.00792865
-0.0152574
-0.0228276
-0.0295851
-0.0362359
-0.0438059
-0.0515607
-0.0579447
-0.0614866
-0.0608402
-0.0551062
-0.0455977
-0.0344634
-0.0222422
-0.00900348
0.0030265
0.0106626
0.013945
0.014558
0.0120118
0.0048531
0.00642159
0.0166035
0.0218285
0.0234688
0.0223353
0.0171163
0.00744794
-0.00451941
-0.0172582
-0.030333
-0.0424327
-0.0511715
-0.0554658
-0.0562031
-0.0543763
-0.050859
-0.0463783
-0.0410205
-0.0340746
-0.0260606
-0.0188267
-0.0139945
-0.0126695
-0.0149996
-0.0192044
-0.0207857
-0.0157491
-0.00446082
0.0082126
0.016301
0.0166392
0.0114175
0.00573514
0.00335444
0.00381877
0.00239877
-0.00543051
-0.0204706
-0.0396623
-0.0572147
-0.0676236
-0.0689809
-0.0624091
-0.0507796
-0.0374419
-0.0246414
-0.0133246
-0.00410771
0.00253163
0.00608949
0.00608919
0.00253075
-0.00410917
-0.0133266
-0.024644
-0.037445
-0.0507832
-0.0624132
-0.068985
-0.0676276
-0.0572181
-0.0396648
-0.0204719
-0.00543083
0.00239907
0.00381919
0.0033547
0.00573532
0.0114179
0.0166401
0.0163024
0.00821399
-0.00445987
-0.0157487
-0.0207854
-0.0192037
-0.0149985
-0.0126682
-0.0139937
-0.0188266
-0.0260608
-0.0340747
-0.0410203
-0.0463781
-0.0508597
-0.0543787
-0.0562069
-0.0554701
-0.0511753
-0.0424352
-0.0303341
-0.0172578
-0.00451772
0.00745114
0.0171212
0.0223415
0.0234757
0.0218349
0.0166081
0.00642334
0.00776683
0.0207369
0.0288435
0.0333087
0.0350631
0.0329842
0.0262432
0.0158614
0.00277763
-0.0120118
-0.0264357
-0.0381839
-0.0467374
-0.0529119
-0.0568817
-0.0583702
-0.0570594
-0.0526195
-0.0450959
-0.036468
-0.0292557
-0.0244061
-0.0217735
-0.0209677
-0.0207857
-0.0180905
-0.0099868
0.00306327
0.0168876
0.0261572
0.0276297
0.0229209
0.0165915
0.0124189
0.0105092
0.00685976
-0.00263903
-0.01876
-0.038812
-0.0573413
-0.069048
-0.0722441
-0.0681396
-0.0595955
-0.0500948
-0.0417616
-0.0351314
-0.0303999
-0.0273535
-0.0257315
-0.0257317
-0.0273543
-0.0304014
-0.0351337
-0.0417645
-0.0500982
-0.0595992
-0.0681433
-0.0722478
-0.0690514
-0.0573443
-0.0388142
-0.0187612
-0.00263924
0.00686033
0.0105101
0.0124197
0.0165919
0.0229212
0.0276302
0.0261581
0.0168888
0.00306437
-0.00998609
-0.0180902
-0.0207854
-0.0209671
-0.0217727
-0.0244054
-0.0292557
-0.0364688
-0.0450974
-0.0526213
-0.0570611
-0.0583721
-0.0568842
-0.0529151
-0.0467408
-0.0381865
-0.0264367
-0.0120109
0.00278025
0.0158651
0.0262477
0.0329895
0.0350692
0.0333151
0.0288494
0.0207412
0.00776845
0.00803628
0.0219178
0.0316345
0.0381964
0.0423908
0.0431011
0.0390648
0.0303638
0.0175862
0.00234494
-0.0128175
-0.0261327
-0.037932
-0.0487958
-0.0576411
-0.0627645
-0.0630009
-0.0581688
-0.0494906
-0.0402922
-0.0332722
-0.0283131
-0.0240326
-0.0199047
-0.0157491
-0.0099868
-0.000628332
0.0122762
0.0256662
0.0349789
0.0367784
0.0318955
0.0242679
0.0177771
0.0132391
0.00753384
-0.00304944
-0.0194622
-0.0395889
-0.0585236
-0.0713213
-0.0764774
-0.0751804
-0.0701782
-0.0649708
-0.0615356
-0.0600102
-0.0601187
-0.0609245
-0.0613931
-0.0613934
-0.0609254
-0.0601202
-0.0600123
-0.0615382
-0.0649737
-0.0701814
-0.0751837
-0.0764805
-0.0713242
-0.0585261
-0.0395906
-0.0194631
-0.00304952
0.00753443
0.01324
0.017778
0.0242685
0.0318958
0.0367785
0.0349792
0.0256668
0.0122771
-0.000627391
-0.0099861
-0.0157487
-0.0199044
-0.0240322
-0.0283127
-0.0332722
-0.0402931
-0.0494927
-0.058172
-0.0630044
-0.0627679
-0.0576442
-0.0487986
-0.0379343
-0.0261341
-0.0128173
0.0023472
0.0175902
0.0303689
0.0390702
0.0431067
0.0423965
0.0382018
0.0316393
0.0219212
0.00803755
0.00662523
0.0183427
0.0272514
0.0341267
0.0393912
0.0418408
0.0399594
0.0332132
0.0220059
0.0083569
-0.00522993
-0.017966
-0.0310944
-0.0446962