/*--------------------------------*- C++ -*----------------------------------*\
  =========                 |
  \\      /  F ield         | OpenFOAM: The Open Source CFD Toolbox
   \\    /   O peration     | Website:  https://openfoam.org
    \\  /    A nd           | Version:  10
     \\/     M anipulation  |
\*---------------------------------------------------------------------------*/
FoamFile
{
    format      ascii;
    class       volScalarField;
    location    "71";
    object      h_0;
}
// * * * * * * * * * * * * * * * * * * * * * * * * * * * * * * * * * * * * * //

dimensions      [0 1 0 0 0 0 0];

internalField   nonuniform List<scalar> 
10000
(
-0.000134208
-0.000488025
-0.00104268
-0.00176366
-0.00252011
-0.00321072
-0.00378856
-0.00419743
-0.00434855
-0.00416157
-0.00358357
-0.00271926
-0.00189722
-0.00147264
-0.00152852
-0.00183262
-0.00208932
-0.00213122
-0.00199576
-0.00194305
-0.00234475
-0.00329342
-0.00437771
-0.00504645
-0.00507609
-0.00459663
-0.0039431
-0.00357535
-0.00382383
-0.00457616
-0.00530968
-0.00559969
-0.00560697
-0.00593318
-0.00698558
-0.00865264
-0.010461
-0.0118615
-0.0124799
-0.0122792
-0.011491
-0.0103697
-0.00894079
-0.0070085
-0.00450597
-0.00171215
0.000925171
0.00303795
0.00446457
0.00518573
0.00518592
0.00446507
0.00303865
0.000925901
-0.00171153
-0.00450557
-0.00700834
-0.00894088
-0.01037
-0.0114916
-0.0122799
-0.0124806
-0.0118621
-0.0104613
-0.00865271
-0.00698536
-0.00593279
-0.00560658
-0.00559945
-0.0053096
-0.00457618
-0.00382386
-0.00357535
-0.00394312
-0.00459674
-0.00507632
-0.0050467
-0.00437779
-0.00329322
-0.00234436
-0.00194271
-0.00199569
-0.00213142
-0.00208956
-0.00183265
-0.00152826
-0.00147223
-0.00189696
-0.00271929
-0.00358378
-0.00416171
-0.00434844
-0.00419715
-0.00378831
-0.00321065
-0.00252017
-0.00176366
-0.00104252
-0.000487797
-0.000134098
-0.000488025
-0.00167313
-0.00336698
-0.00551836
-0.00783284
-0.0100456
-0.0119514
-0.0132761
-0.0137117
-0.0130834
-0.0113515
-0.00888336
-0.00659089
-0.00540361
-0.00550267
-0.00625714
-0.0069186
-0.00708124
-0.00683569
-0.00684081
-0.00808135
-0.0108032
-0.0138659
-0.0157419
-0.0158099
-0.0144161
-0.0124858
-0.0113434
-0.011989
-0.0141495
-0.0163235
-0.0172465
-0.0173336
-0.018296
-0.0213145
-0.026089
-0.0312716
-0.0352801
-0.0370219
-0.0363763
-0.0340075
-0.030653
-0.0263866
-0.0206414
-0.013231
-0.00498242
0.00278365
0.00898873
0.0131678
0.0152756
0.0152762
0.0131693
0.0089908
0.00278585
-0.00498054
-0.0132297
-0.0206409
-0.0263869
-0.030654
-0.0340091
-0.0363783
-0.0370239
-0.0352819
-0.0312727
-0.0260893
-0.021314
-0.018295
-0.0173325
-0.0172457
-0.0163232
-0.0141495
-0.0119891
-0.0113435
-0.012486
-0.0144165
-0.0158104
-0.0157425
-0.0138661
-0.0108028
-0.0080804
-0.00683996
-0.00683544
-0.00708162
-0.00691915
-0.00625724
-0.00550208
-0.00540264
-0.00659019
-0.00888332
-0.0113519
-0.0130838
-0.0137115
-0.0132755
-0.0119508
-0.0100453
-0.00783283
-0.00551829
-0.00336662
-0.00167265
-0.000487796
-0.00104268
-0.00336698
-0.00632193
-0.00994649
-0.0139757
-0.0180464
-0.0216544
-0.024101
-0.0247979
-0.0236291
-0.0208133
-0.0170703
-0.0137105
-0.0119373
-0.0119027
-0.0127484
-0.0135838
-0.0139597
-0.0139493
-0.0143316
-0.0164227
-0.0205749
-0.0251531
-0.0279367
-0.027992
-0.0257646
-0.0226006
-0.0205884
-0.0214276
-0.024817
-0.0284044
-0.0300822
-0.030353
-0.0318276
-0.0363934
-0.0436707
-0.0516102
-0.0577327
-0.0602814
-0.0590268
-0.055012
-0.049423
-0.0423945
-0.033038
-0.0210603
-0.0077768
0.00470134
0.0146525
0.0213419
0.0247081
0.0247089
0.0213443
0.0146558
0.00470488
-0.00777373
-0.0210582
-0.0330371
-0.0423949
-0.0494246
-0.0550145
-0.0590299
-0.0602846
-0.0577354
-0.051612
-0.0436713
-0.0363929
-0.0318262
-0.0303514
-0.0300809
-0.0284036
-0.0248168
-0.0214278
-0.0205887
-0.0226011
-0.0257651
-0.0279926
-0.0279373
-0.0251532
-0.0205744
-0.0164217
-0.0143306
-0.0139489
-0.0139599
-0.0135842
-0.0127485
-0.0119021
-0.0119363
-0.0137096
-0.01707
-0.0208135
-0.0236293
-0.0247978
-0.0241004
-0.0216537
-0.0180458
-0.0139753
-0.00994617
-0.00632156
-0.00336662
-0.00104252
-0.00176366
-0.00551836
-0.00994649
-0.01524
-0.021253
-0.0275204
-0.0331346
-0.03688
-0.0379091
-0.0362884
-0.0326365
-0.0280276
-0.023977
-0.0217284
-0.02136
-0.0219874
-0.0228372
-0.0235366
-0.024039
-0.0249939
-0.0278146
-0.0329512
-0.0385283
-0.0418946
-0.0418377
-0.0387694
-0.0343311
-0.0313198
-0.0321712
-0.0366604
-0.0416777
-0.0442368
-0.0447233
-0.0464157
-0.0518702
-0.0607939
-0.0706505
-0.0782085
-0.0810983
-0.078953
-0.07315
-0.0653106
-0.055669
-0.043084
-0.0271451
-0.00953014
0.00700556
0.0201972
0.0290687
0.033528
0.0335291
0.0290717
0.0202014
0.00701015
-0.00952607
-0.0271422
-0.0430826
-0.0556694
-0.0653126
-0.0731533
-0.0789572
-0.0811025
-0.0782121
-0.070653
-0.060795
-0.0518699
-0.0464144
-0.0447215
-0.0442352
-0.0416766
-0.0366599
-0.0321712
-0.0313202
-0.0343318
-0.0387701
-0.0418383
-0.0418949
-0.0385283
-0.0329507
-0.0278138
-0.024993
-0.0240384
-0.0235361
-0.0228369
-0.0219872
-0.0213597
-0.0217279
-0.0239764
-0.028027
-0.0326361
-0.0362883
-0.0379091
-0.0368798
-0.0331341
-0.0275195
-0.0212521
-0.0152394
-0.00994617
-0.00551829
-0.00176366
-0.00252011
-0.00783284
-0.0139757
-0.021253
-0.0295294
-0.0381471
-0.0458139
-0.0509231
-0.0524809
-0.0507242
-0.0465818
-0.0413754
-0.036742
-0.0339568
-0.0331171
-0.0334411
-0.0343211
-0.0354288
-0.0365358
-0.0380863
-0.0414939
-0.0472921
-0.0535059
-0.0571955
-0.0568707
-0.0528508
-0.0470532
-0.042962
-0.0437279
-0.0492363
-0.0556951
-0.0592307
-0.0599242
-0.0614729
-0.0670405
-0.0765881
-0.0873279
-0.0954637
-0.0981084
-0.0947495
-0.0870399
-0.0769941
-0.0649684
-0.0496472
-0.0305028
-0.00943966
0.010312
0.0260687
0.0366632
0.0419769
0.0419781
0.0366666
0.0260735
0.0103172
-0.00943486
-0.0304992
-0.0496453
-0.0649685
-0.0769962
-0.0870436
-0.0947543
-0.0981133
-0.0954679
-0.0873309
-0.0765896
-0.0670407
-0.061472
-0.0599226
-0.059229
-0.0556936
-0.0492353
-0.0437275
-0.0429623
-0.047054
-0.0528516
-0.0568711
-0.0571956
-0.0535056
-0.0472916
-0.0414934
-0.0380858
-0.0365351
-0.0354278
-0.0343201
-0.0334405
-0.033117
-0.0339568
-0.0367419
-0.0413749
-0.0465811
-0.0507237
-0.0524808
-0.0509232
-0.0458137
-0.0381464
-0.0295283
-0.0212521
-0.0139753
-0.00783282
-0.00252016
-0.00321072
-0.0100456
-0.0180464
-0.0275204
-0.0381471
-0.0489895
-0.0585039
-0.0649345
-0.067242
-0.0656788
-0.0612509
-0.0554192
-0.0500144
-0.0465226
-0.0452085
-0.0453834
-0.046438
-0.0479574
-0.0495731
-0.0516475
-0.055605
-0.0619806
-0.0686793
-0.0725087
-0.0717309
-0.0666393
-0.0595012
-0.0544371
-0.0551761
-0.061666
-0.0695314
-0.0740913
-0.0749955
-0.076094
-0.0810316
-0.090136
-0.100607
-0.108333
-0.110083
-0.105229
-0.095615
-0.0835428
-0.0694652
-0.0519678
-0.0304352
-0.00689103
0.0151176
0.0326254
0.0443552
0.0502058
0.050207
0.0443586
0.0326303
0.0151231
-0.0068858
-0.030431
-0.0519653
-0.0694648
-0.0835446
-0.0956188
-0.105234
-0.110088
-0.108337
-0.100611
-0.0901381
-0.0810325
-0.0760939
-0.0749944
-0.0740897
-0.0695296
-0.0616644
-0.0551752
-0.054437
-0.0595018
-0.06664
-0.0717311
-0.0725084
-0.0686788
-0.0619801
-0.0556047
-0.0516472
-0.0495724
-0.0479562
-0.0464365
-0.0453824
-0.0452083
-0.0465229
-0.0500147
-0.0554191
-0.0612503
-0.0656781
-0.0672416
-0.0649344
-0.0585038
-0.0489891
-0.0381464
-0.0275195
-0.0180458
-0.0100453
-0.00321064
-0.00378856
-0.0119514
-0.0216544
-0.0331346
-0.0458139
-0.0585039
-0.0695588
-0.0772226
-0.0803913
-0.0791331
-0.0743551
-0.0676529
-0.0612006
-0.0568849
-0.0552256
-0.0555128
-0.0568829
-0.0586996
-0.0605802
-0.0630387
-0.067576
-0.0746137
-0.0818246
-0.0857303
-0.0843879
-0.0782068
-0.0699383
-0.0642672
-0.0652696
-0.072818
-0.0820394
-0.0875913
-0.0886607
-0.0890469
-0.0927403
-0.100488
-0.109657
-0.116049
-0.116297
-0.109732
-0.0983195
-0.0845266
-0.0688548
-0.0498492
-0.0268296
-0.00183449
0.0214285
0.0398439
0.0521009
0.058161
0.0581622
0.0521041
0.0398485
0.0214339
-0.00182917
-0.0268251
-0.0498462
-0.0688539
-0.084528
-0.0983229
-0.109737
-0.116302
-0.116053
-0.10966
-0.100491
-0.0927422
-0.0890478
-0.0886604
-0.0875899
-0.0820373
-0.0728159
-0.0652681
-0.0642665
-0.0699384
-0.078207
-0.0843877
-0.0857297
-0.0818239
-0.0746132
-0.0675757
-0.0630384
-0.0605795
-0.0586984
-0.0568813
-0.0555115
-0.0552252
-0.0568852
-0.0612012
-0.0676534
-0.0743552
-0.0791327
-0.0803908
-0.0772222
-0.0695587
-0.0585038
-0.0458137
-0.0331341
-0.0216537
-0.0119508
-0.0037883
-0.00419743
-0.0132761
-0.024101
-0.03688
-0.0509231
-0.0649345
-0.0772226
-0.0859761
-0.0898934
-0.0887407
-0.0833298
-0.0754886
-0.0678277
-0.062681
-0.0608101
-0.0613794
-0.0631059
-0.0650665
-0.066987
-0.069721
-0.0749055
-0.082778
-0.0906985
-0.0948477
-0.0930701
-0.086
-0.0770078
-0.0712856
-0.0730132
-0.081807
-0.0923452
-0.0987862
-0.0999041
-0.0993465
-0.101358
-0.107115
-0.114239
-0.118604
-0.116891
-0.108488
-0.095454
-0.0803243
-0.063605
-0.0438429
-0.0202975
0.00509393
0.0286216
0.0471381
0.0593555
0.065325
0.0653259
0.0593582
0.0471422
0.0286265
0.00509896
-0.0202929
-0.0438396
-0.0636035
-0.0803249
-0.0954565
-0.108492
-0.116895
-0.118608
-0.114243
-0.107118
-0.101361
-0.0993483
-0.0999044
-0.0987853
-0.0923433
-0.0818046
-0.073011
-0.0712841
-0.0770069
-0.0859993
-0.0930694
-0.094847
-0.0906979
-0.0827774
-0.074905
-0.0697204
-0.0669862
-0.0650654
-0.0631047
-0.0613783
-0.0608095
-0.0626809
-0.0678282
-0.0754894
-0.0833306
-0.088741
-0.0898932
-0.0859756
-0.0772222
-0.0649344
-0.0509232
-0.0368798
-0.0241004
-0.0132755
-0.00419714
-0.00434855
-0.0137117
-0.0247979
-0.0379091
-0.0524809
-0.067242
-0.0803913
-0.0898934
-0.0941303
-0.0925967
-0.0861588
-0.0769867
-0.0680866
-0.0621148
-0.0600003
-0.060783
-0.0627899
-0.0648503
-0.0668412
-0.069961
-0.0759458
-0.0848435
-0.0937537
-0.0985382
-0.0967935
-0.089377
-0.0803011
-0.075175
-0.0780836
-0.0882791
-0.100086
-0.10734
-0.108466
-0.106885
-0.107002
-0.110399
-0.115007
-0.116903
-0.112988
-0.102804
-0.0884605
-0.0724563
-0.0552592
-0.0354671
-0.0123013
0.0124912
0.0353444
0.0531929
0.064828
0.0704217
0.0704225
0.06483
0.0531961
0.0353484
0.0124956
-0.012297
-0.0354635
-0.0552571
-0.0724558
-0.0884617
-0.102806
-0.112991
-0.116907
-0.11501
-0.110403
-0.107005
-0.106887
-0.108468
-0.107339
-0.100084
-0.0882768
-0.078081
-0.0751725
-0.0802989
-0.0893752
-0.0967923
-0.0985374
-0.0937532
-0.0848429
-0.0759449
-0.0699599
-0.0668402
-0.0648496
-0.0627894
-0.0607824
-0.0599997
-0.0621144
-0.0680868
-0.0769876
-0.0861601
-0.0925977
-0.0941307
-0.0898932
-0.0803908
-0.0672416
-0.0524808
-0.0379091
-0.0247978
-0.0137115
-0.00434844
-0.00416157
-0.0130834
-0.0236291
-0.0362884
-0.0507242
-0.0656788
-0.0791331
-0.0887407
-0.0925967
-0.0900737
-0.0822541
-0.0716723
-0.0615624
-0.0546847
-0.0520595
-0.05272
-0.0548085
-0.0570389
-0.0593982
-0.0632366
-0.0702158
-0.0802183
-0.090288
-0.0961521
-0.0951773
-0.0883316
-0.08009
-0.0762652
-0.0806888
-0.0922818
-0.105235
-0.113282
-0.114539
-0.11208
-0.110344
-0.11127
-0.113145
-0.112392
-0.106289
-0.0946019
-0.0794188
-0.0630768
-0.0459695
-0.0268088
-0.00482567
0.0184816
0.0398208
0.0563163
0.0668904
0.0718617
0.0718622
0.0668918
0.0563185
0.0398237
0.0184852
-0.00482184
-0.0268052
-0.0459668
-0.0630752
-0.0794184
-0.0946025
-0.10629
-0.112394
-0.113148
-0.111274
-0.110348
-0.112083
-0.11454
-0.113282
-0.105235
-0.09228
-0.0806861
-0.076262
-0.0800867
-0.0883288
-0.0951754
-0.096151
-0.0902874
-0.0802176
-0.0702147
-0.0632354
-0.0593973
-0.0570386
-0.0548085
-0.0527201
-0.0520594
-0.0546845
-0.0615626
-0.0716731
-0.0822555
-0.0900752
-0.0925977
-0.088741
-0.0791327
-0.0656781
-0.0507237
-0.0362883
-0.0236293
-0.0130837
-0.00416171
-0.00358357
-0.0113515
-0.0208133
-0.0326365
-0.0465818
-0.0612509
-0.0743551
-0.0833298
-0.0861588
-0.0822541
-0.0729639
-0.0610736
-0.0498174
-0.0418615
-0.0382964
-0.0383233
-0.0401594
-0.0425617
-0.0455594
-0.0503955
-0.0584305
-0.0694092
-0.0805871
-0.0878439
-0.088405
-0.0831831
-0.0767864
-0.0749118
-0.080998
-0.0937678
-0.107587
-0.116338
-0.11788
-0.114835
-0.111534
-0.110189
-0.109462
-0.106213
-0.098207
-0.0854717
-0.0700007
-0.0538753
-0.0374144
-0.0195163
0.000536967
0.0215592
0.0406678
0.0552752
0.0644537
0.0686487
0.0686489
0.0644544
0.0552763
0.0406697
0.0215618
0.00054012
-0.019513
-0.0374113
-0.0538727
-0.0699986
-0.0854703
-0.0982065
-0.106214
-0.109464
-0.110192
-0.111538
-0.114838
-0.117882
-0.116339
-0.107587
-0.0937667
-0.0809957
-0.0749086
-0.0767827
-0.0831797
-0.0884024
-0.0878422
-0.0805862
-0.0694084
-0.0584297
-0.0503946
-0.0455588
-0.0425616
-0.0401598
-0.0383239
-0.038297
-0.041862
-0.0498179
-0.0610744
-0.072965
-0.0822555
-0.0861601
-0.0833306
-0.0743552
-0.0612503
-0.0465811
-0.0326361
-0.0208135
-0.0113519
-0.00358378
-0.00271926
-0.00888336
-0.0170703
-0.0280276
-0.0413754
-0.0554192
-0.0676529
-0.0754886
-0.0769867
-0.0716723
-0.0610736
-0.0480355
-0.035609
-0.0262928
-0.0213082
-0.0201729
-0.0213494
-0.023738
-0.0273765
-0.0332377
-0.0422344
-0.053992
-0.0661585
-0.0749831
-0.077642
-0.0748587
-0.071057
-0.0715129
-0.0791579
-0.0926616
-0.106865
-0.116057
-0.117931
-0.114613
-0.110207
-0.107083
-0.104227
-0.098957
-0.0895616
-0.0763352
-0.0611224
-0.0457055
-0.0303788
-0.0143134
0.00312754
0.0211467
0.037422
0.0497497
0.0573423
0.060702
0.060702
0.0573423
0.0497499
0.0374227
0.0211482
0.00312989
-0.0143104
-0.0303753
-0.0457018
-0.0611186
-0.0763317
-0.0895592
-0.0989563
-0.104228
-0.107086
-0.110211
-0.114617
-0.117933
-0.116058
-0.106866
-0.0926616
-0.0791566
-0.0715103
-0.0710535
-0.0748551
-0.0776389
-0.0749808
-0.0661572
-0.0539914
-0.042234
-0.0332375
-0.0273764
-0.0237382
-0.02135
-0.020174
-0.0213095
-0.0262942
-0.0356103
-0.0480364
-0.0610744
-0.0716731
-0.0769876
-0.0754894
-0.0676534
-0.0554191
-0.0413749
-0.028027
-0.01707
-0.00888332
-0.00271929
-0.00189722
-0.00659089
-0.0137105
-0.023977
-0.036742
-0.0500144
-0.0612006
-0.0678277
-0.0680866
-0.0615624
-0.0498174
-0.035609
-0.0217701
-0.0107115
-0.00388594
-0.00117288
-0.00129309
-0.00330381
-0.00727163
-0.0139012
-0.0236518
-0.0360328
-0.0490924
-0.0594911
-0.0644134
-0.0643553
-0.0633693
-0.0661037
-0.0749057
-0.0885065
-0.102468
-0.111721
-0.11391
-0.110647
-0.105693
-0.10143
-0.0971035
-0.0904917
-0.0804031
-0.0673587
-0.0529794
-0.0387176
-0.0249208
-0.0111441
0.00311793
0.0175177
0.0304448
0.0401857
0.0460813
0.0485997
0.0485995
0.0460808
0.0401851
0.0304446
0.0175182
0.0031195
-0.0111415
-0.0249172
-0.0387129
-0.0529741
-0.0673534
-0.080399
-0.0904895
-0.0971037
-0.101432
-0.105696
-0.110651
-0.113913
-0.111724
-0.10247
-0.0885079
-0.0749059
-0.0661024
-0.0633667
-0.064352
-0.0644101
-0.0594885
-0.0490907
-0.0360322
-0.023652
-0.0139017
-0.00727214
-0.00330433
-0.00129389
-0.00117425
-0.00388789
-0.0107137
-0.021772
-0.0356103
-0.0498179
-0.0615626
-0.0680868
-0.0678282
-0.0612012
-0.0500147
-0.0367419
-0.0239764
-0.0137096
-0.00659019
-0.00189695
-0.00147264
-0.00540361
-0.0119373
-0.0217284
-0.0339568
-0.0465226
-0.0568849
-0.062681
-0.0621148
-0.0546847
-0.0418615
-0.0262928
-0.0107115
0.00240646
0.011335
0.01591
0.0172403
0.0161333
0.012424
0.00555486
-0.00458163
-0.0173657
-0.0311118
-0.0427956
-0.0496551
-0.0520238
-0.0535268
-0.0580715
-0.0673736
-0.0803018
-0.0933202
-0.102204
-0.104667
-0.101809
-0.0969055
-0.0921954
-0.0871235
-0.0799468
-0.0699861
-0.0579189
-0.0450376
-0.0324151
-0.0205212
-0.0094071
0.00122649
0.0115047
0.0206549
0.0275615
0.0316931
0.0333907
0.0333904
0.0316921
0.0275603
0.020654
0.0115046
0.0012274
-0.00940491
-0.0205176
-0.0324099
-0.0450313
-0.0579122
-0.0699805
-0.0799432
-0.0871223
-0.0921962
-0.0969076
-0.101811
-0.10467
-0.102207
-0.0933236
-0.0803049
-0.0673756
-0.058072
-0.0535257
-0.0520215
-0.0496524
-0.0427931
-0.03111
-0.017365
-0.00458195
0.00555403
0.0124231
0.0161323
0.0172391
0.0159083
0.0113328
0.002404
-0.0107137
-0.0262942
-0.041862
-0.0546845
-0.0621145
-0.0626809
-0.0568852
-0.0465229
-0.0339568
-0.0217279
-0.0119363
-0.00540264
-0.00147223
-0.00152852
-0.00550267
-0.0119027
-0.02136
-0.0331171
-0.0452085
-0.0552256
-0.0608101
-0.0600003
-0.0520595
-0.0382964
-0.0213082
-0.00388594
0.011335
0.0224173
0.0290397
0.0322034
0.0325632
0.029767
0.02326
0.013166
0.000272364
-0.0138019
-0.0262026
-0.0342774
-0.0383253
-0.041576
-0.047165
-0.0561561
-0.0675743
-0.0788759
-0.0868449
-0.08943
-0.087258
-0.0830012
-0.078559
-0.0734863
-0.0665262
-0.0575069
-0.047207
-0.0365031
-0.0260355
-0.0164295
-0.00830863
-0.00165081
0.00412952
0.0091797
0.0130736
0.0154132
0.016328
0.0163275
0.015412
0.013072
0.0091783
0.00412883
-0.00165042
-0.00830686
-0.016426
-0.0260302
-0.0364962
-0.0471996
-0.0575003
-0.0665216
-0.0734839
-0.0785585
-0.0830021
-0.0872601
-0.089433
-0.0868489
-0.0788806
-0.0675791
-0.0561602
-0.0471676
-0.0415768
-0.0383245
-0.0342756
-0.0262005
-0.0138002
0.000273352
0.0131661
0.0232594
0.0297661
0.032562
0.0322018
0.0290378
0.0224152
0.0113328
-0.00388789
-0.0213095
-0.038297
-0.0520594
-0.0599997
-0.0608095
-0.0552252
-0.0452083
-0.033117
-0.0213597
-0.0119021
-0.00550207
-0.00152825
-0.00183262
-0.00625714
-0.0127484
-0.0219874
-0.0334411
-0.0453834
-0.0555128
-0.0613794
-0.060783
-0.05272
-0.0383233
-0.0201729
-0.00117288
0.01591
0.0290397
0.0377968
0.0430231
0.0451444
0.0435636
0.0376624
0.0277538
0.0148784
0.000791011
-0.0116982
-0.020114
-0.024864
-0.0288787
-0.0345858
-0.0424247
-0.0515379
-0.0603543
-0.0667802
-0.0691986
-0.0678782
-0.0647842
-0.0612623
-0.0568424
-0.0507355
-0.0432858
-0.0353619
-0.0273841
-0.0195166
-0.012526
-0.00762907
-0.0051384
-0.00405963
-0.00330106
-0.00253312
-0.00199771
-0.00183202
-0.00183255
-0.00199912
-0.00253493
-0.00330273
-0.00406066
-0.00513842
-0.00762774
-0.0125229
-0.0195116
-0.0273775
-0.0353545
-0.0432789
-0.0507302
-0.056839
-0.0612606
-0.0647839
-0.0678793
-0.0692014
-0.0667845
-0.06036
-0.0515441
-0.0424306
-0.0345903
-0.0288813
-0.0248649
-0.0201135
-0.011697
0.000792515
0.0148798
0.0277547
0.0376628
0.0435633
0.0451433
0.0430214
0.0377949
0.0290378
0.0159083
-0.00117425
-0.020174
-0.0383239
-0.0527201
-0.0607824
-0.0613783
-0.0555116
-0.0453824
-0.0334405
-0.0219872
-0.0127485
-0.00625724
-0.00183265
-0.00208932
-0.0069186
-0.0135838
-0.0228372
-0.0343211
-0.046438
-0.0568829
-0.0631059
-0.0627899
-0.0548085
-0.0401594
-0.0213494
-0.00129309
0.0172403
0.0322034
0.0430231
0.0502227
0.0538982
0.0532218
0.0475773
0.0375465
0.0245503
0.0106218
-0.00142444
-0.00937415
-0.0138672
-0.0176522
-0.0225874
-0.0285747
-0.0348169
-0.0406095
-0.0450077
-0.0469926
-0.0465913
-0.0449888
-0.0427953
-0.0394013
-0.0344807
-0.0289236
-0.0237104
-0.0187984
-0.0138276
-0.00963648
-0.00799854
-0.00961265
-0.0131802
-0.0167159
-0.0191025
-0.0203781
-0.0209477
-0.0209483
-0.0203796
-0.0191044
-0.0167177
-0.0131814
-0.00961304
-0.00799775
-0.0096341
-0.0138233
-0.0187925
-0.0237037
-0.0289173
-0.0344755
-0.0393974
-0.0427925
-0.0449873
-0.0465914
-0.0469948
-0.0450121
-0.0406158
-0.0348242
-0.0285819
-0.0225933
-0.0176563
-0.0138696
-0.00937511
-0.00142432
0.0106228
0.0245519
0.0375484
0.0475789
0.0532226
0.0538979
0.0502214
0.0430214
0.0322018
0.0172391
-0.00129389
-0.02135
-0.0401598
-0.0548085
-0.0627894
-0.0631047
-0.0568813
-0.0464365
-0.0343201
-0.0228369
-0.0135842
-0.00691914
-0.00208955
-0.00213122
-0.00708124
-0.0139597
-0.0235366
-0.0354288
-0.0479574
-0.0586996
-0.0650665
-0.0648503
-0.0570389
-0.0425617
-0.023738
-0.00330381
0.0161333
0.0325632
0.0451444
0.0538982
0.0585134
0.0580147
0.0519455
0.0413051
0.0280083
0.0144079
0.00325799
-0.00360529
-0.00713002
-0.00994874
-0.0134805
-0.0172099
-0.0203654
-0.0229657
-0.0251482
-0.0265601
-0.027056
-0.0269948
-0.0261522
-0.02374
-0.0199282
-0.0162071
-0.0137151
-0.0119604
-0.00999445
-0.00858932
-0.0099723
-0.0152723
-0.023055
-0.0305908
-0.0359999
-0.0390506
-0.0403501
-0.0403507
-0.0390521
-0.0360019
-0.0305926
-0.0230564
-0.0152731
-0.0099722
-0.00858796
-0.00999155
-0.011956
-0.0137099
-0.0162018
-0.0199235
-0.023736
-0.0261488
-0.0269922
-0.027055
-0.0265615
-0.0251523
-0.0229721
-0.0203731
-0.0172176
-0.0134872
-0.00995383
-0.00713356
-0.00360754
0.00325698
0.0144083
0.02801
0.0413077
0.0519482
0.0580167
0.0585143
0.0538979
0.0451433
0.032562
0.0161323
-0.00330433
-0.0237382
-0.0425616
-0.0570387
-0.0648496
-0.0650654
-0.0586984
-0.0479562
-0.0354278
-0.0235361
-0.0139599
-0.00708161
-0.00213141
-0.00199576
-0.00683569
-0.0139493
-0.024039
-0.0365358
-0.0495731
-0.0605802
-0.066987
-0.0668412
-0.0593982
-0.0455594
-0.0273765
-0.00727163
0.012424
0.029767
0.0435636
0.0532218
0.0580147
0.0569306
0.0498152
0.0381975
0.024551
0.0115142
0.00163838
-0.00375895
-0.00595885
-0.00745969
-0.00930854
-0.0106779
-0.0108064
-0.010291
-0.0102379
-0.0109628
-0.0121788
-0.0133992
-0.0135354
-0.0116304
-0.00839592
-0.00598559
-0.00577473
-0.00687818
-0.00770383
-0.00876761
-0.0125784
-0.0207131
-0.0318172
-0.0426617
-0.0507039
-0.0553786
-0.0573742
-0.0573748
-0.0553801
-0.0507059
-0.0426636
-0.0318189
-0.0207145
-0.0125792
-0.00876756
-0.00770261
-0.00687579
-0.00577152
-0.00598207
-0.00839235
-0.0116268
-0.0135317
-0.0133958
-0.0121768
-0.0109632
-0.0102412
-0.0102966
-0.0108135
-0.0106852
-0.00931517
-0.00746516
-0.0059632
-0.00376227
0.00163628
0.0115138
0.0245523
0.0382002
0.0498186
0.0569337
0.0580167
0.0532226
0.0435633
0.0297661
0.0124231
-0.00727214
-0.0273764
-0.0455588
-0.0593973
-0.0668403
-0.0669862
-0.0605795
-0.0495724
-0.0365351
-0.0240384
-0.0139488
-0.00683544
-0.00199568
-0.00194305
-0.00684081
-0.0143316
-0.0249939
-0.0380863
-0.0516475
-0.0630387
-0.069721
-0.069961
-0.0632366
-0.0503955
-0.0332377
-0.0139012
0.00555486
0.02326
0.0376624
0.0475773
0.0519455
0.0498152
0.0413751
0.0286937
0.0148181
0.00262659
-0.00567581
-0.00941641
-0.0102065
-0.0103609
-0.010579
-0.00977812
-0.00716789
-0.00378231
-0.00158082
-0.00152615
-0.00320083
-0.00526678
-0.00578153
-0.00364121
-0.000118259
0.00192375
0.000769119
-0.00241952
-0.0054006
-0.00824348
-0.0135234
-0.0232437
-0.0363515
-0.0494221
-0.0594177
-0.0654008
-0.0679946
-0.0679952
-0.0654024
-0.0594196
-0.0494241
-0.0363535
-0.0232458
-0.0135253
-0.00824489
-0.00540119
-0.00241921
0.000770183
0.00192539
-0.00011603
-0.00363821
-0.00577775
-0.00526279
-0.00319779
-0.00152524
-0.00158257
-0.00378641
-0.00717345
-0.00978417
-0.0105849
-0.0103663
-0.0102113
-0.00942058
-0.00567894
0.00262507
0.0148184
0.0286958
0.0413783
0.0498186
0.0519482
0.0475789
0.0376628
0.0232594
0.00555403
-0.0139017
-0.0332375
-0.0503946
-0.0632354
-0.0699599
-0.0697204
-0.0630384
-0.0516472
-0.0380858
-0.024993
-0.0143306
-0.00683995
-0.0019427
-0.00234475
-0.00808135
-0.0164227
-0.0278146
-0.0414939
-0.055605
-0.067576
-0.0749055
-0.0759458
-0.0702158
-0.0584305
-0.0422344
-0.0236518
-0.00458163
0.013166
0.0277538
0.0375465
0.0413051
0.0381975
0.0286937
0.0153113
0.00162869
-0.00928793
-0.0156831
-0.0176102
-0.0170125
-0.0160133
-0.0149845
-0.0125765
-0.00786678
-0.00216665
0.00183798
0.00258616
0.00063361
-0.00185236
-0.0021356
0.000998713
0.00573782
0.00850961
0.00716205
0.00297538
-0.00122097
-0.00489928
-0.0104719
-0.0203006
-0.0338241
-0.0477456
-0.0587578
-0.0655605
-0.0685732
-0.0685737
-0.065562
-0.0587597
-0.0477477
-0.0338265
-0.0203034
-0.0104749
-0.0049021
-0.00122327
0.00297376
0.00716112
0.00850947
0.00573873
0.00100099
-0.00213194
-0.00184794
0.00063759
0.00258849
0.00183806
-0.00216863
-0.00787016
-0.0125806
-0.014989
-0.016018
-0.0170174
-0.0176149
-0.0156871
-0.00929064
0.00162772
0.0153121
0.0286958
0.0382002
0.0413077
0.0375484
0.0277547
0.0131661
-0.00458195
-0.023652
-0.042234
-0.0584297
-0.0702147
-0.0759449
-0.074905
-0.0675757
-0.0556047
-0.0414934
-0.0278138
-0.0164217
-0.00808039
-0.00234435
-0.00329342
-0.0108032
-0.0205749
-0.0329512
-0.0472921
-0.0619806
-0.0746137
-0.082778
-0.0848435
-0.0802183
-0.0694092
-0.053992
-0.0360328
-0.0173657
0.000272364
0.0148784
0.0245503
0.0280083
0.024551
0.0148181
0.00162869
-0.0110258
-0.0199816
-0.0240008
-0.0238942
-0.0219537
-0.0201556
-0.0185642
-0.0154802
-0.00967723
-0.00254878
0.00264863
0.00383226
0.0016913
-0.000863266
-0.000431575
0.00425764
0.0109183
0.0153437
0.0148956
0.0108037
0.0063686
0.00280716
-0.0019119
-0.0103947
-0.0227015
-0.0359683
-0.0468864
-0.0538672
-0.0570344
-0.0570349
-0.0538685
-0.0468882
-0.0359705
-0.0227043
-0.0103982
-0.00191583
0.0028032
0.00636496
0.0108006
0.0148931
0.0153422
0.0109182
0.00425936
-0.000428041
-0.000858568
0.00169602
0.00383589
0.00265059
-0.00254842
-0.00967812
-0.0154821
-0.0185669
-0.0201593
-0.0219583
-0.0238992
-0.0240056
-0.0199855
-0.0110283
0.00162772
0.0148184
0.0245523
0.02801
0.0245519
0.0148798
0.000273353
-0.017365
-0.0360322
-0.0539914
-0.0694084
-0.0802176
-0.0848429
-0.0827774
-0.0746132
-0.0619801
-0.0472916
-0.0329507
-0.0205744
-0.0108027
-0.00329321
-0.00437771
-0.0138659
-0.0251531
-0.0385283
-0.0535059
-0.0686793
-0.0818246
-0.0906985
-0.0937537
-0.090288
-0.0805871
-0.0661585
-0.0490924
-0.0311118
-0.0138019
0.000791011
0.0106218
0.0144079
0.0115142
0.00262659
-0.00928793
-0.0199816
-0.0263049
-0.0275701
-0.0253272
-0.0222254
-0.0201538
-0.0188761
-0.0162225
-0.010457
-0.00284607
0.00294251
0.0043588
0.00215718
-0.000176089
0.00124161
0.00769504
0.0165615
0.0231637
0.0243941
0.0212751
0.0174115
0.014722
0.0117368
0.00576073
-0.00392995
-0.0151472
-0.0248565
-0.0313159
-0.0343256
-0.0343259
-0.0313169
-0.024858
-0.0151493
-0.003933
0.00575683
0.0117324
0.0147175
0.0174071
0.0212711
0.0243906
0.0231613
0.0165607
0.00769638
0.00124498
-0.000171356
0.00216227
0.00436335
0.00294606
-0.00284358
-0.0104555
-0.0162221
-0.018877
-0.0201563
-0.0222294
-0.0253321
-0.0275753
-0.0263097
-0.0199854
-0.00929064
0.00262507
0.0115138
0.0144083
0.0106228
0.000792518
-0.0138002
-0.03111
-0.0490907
-0.0661572
-0.0805862
-0.0902874
-0.0937532
-0.0906979
-0.0818239
-0.0686788
-0.0535056
-0.0385283
-0.0251532
-0.0138661
-0.00437778
-0.00504645
-0.0157419
-0.0279367
-0.0418946
-0.0571955
-0.0725087
-0.0857303
-0.0948477
-0.0985382
-0.0961521
-0.0878439
-0.0749831
-0.0594911
-0.0427956
-0.0262026
-0.0116982
-0.00142444
0.00325799
0.00163838
-0.00567581
-0.0156831
-0.0240008
-0.0275701
-0.0262307
-0.0221966
-0.0184454
-0.016823
-0.016805
-0.0156481
-0.0109251
-0.00359
0.00240825
0.00406007
0.00204362
0.000178122
0.00261843
0.0106514
0.0215303
0.0303628
0.0336589
0.0320959
0.029359
0.0279773
0.0271539
0.0242921
0.0180773
0.00989483
0.0022739
-0.00306012
-0.00562394
-0.00562408
-0.00306063
0.00227284
0.00989294
0.0180744
0.0242883
0.0271495
0.0279729
0.0293546
0.0320918
0.0336552
0.03036
0.0215292
0.0106524
0.00262142
0.000182469
0.00204852
0.0040649
0.00241274
-0.00358593
-0.0109216
-0.0156456
-0.016804
-0.0168239
-0.0184482
-0.0222009
-0.0262358
-0.0275753
-0.0240056
-0.0156871
-0.00567894
0.00163629
0.00325698
-0.00142431
-0.011697
-0.0262005
-0.0427931
-0.0594885
-0.0749808
-0.0878422
-0.096151
-0.0985374
-0.094847
-0.0857297
-0.0725084
-0.0571956
-0.0418949
-0.0279373
-0.0157425
-0.00504669
-0.00507609
-0.0158099
-0.027992
-0.0418377
-0.0568707
-0.0717309
-0.0843879
-0.0930701
-0.0967935
-0.0951773
-0.088405
-0.077642
-0.0644134
-0.0496551
-0.0342774
-0.020114
-0.00937415
-0.00360529
-0.00375895
-0.00941641
-0.0176102
-0.0238942
-0.0253272
-0.0221966
-0.0172425
-0.0136907
-0.0133654
-0.0154843
-0.0166874
-0.0137493
-0.00717965
-0.0010955
0.00103696
-0.000356397
-0.00142539
0.00200952
0.0112313
0.0236178
0.0343712
0.0397676
0.0400303
0.0386613
0.0386123
0.0397965
0.0399299
0.0373039
0.0325215
0.0274594
0.0236459
0.0217399
0.02174
0.0236459
0.0274589
0.0325201
0.0373015
0.0399266
0.0397928
0.0386085
0.0386575
0.0400265
0.0397641
0.0343684
0.0236166
0.011232
0.00201185
-0.00142193
-0.000352342
0.00104133
-0.00109085
-0.00717478
-0.0137445
-0.0166832
-0.0154815
-0.0133645
-0.013692
-0.0172455
-0.0222009
-0.0253321
-0.0238992
-0.0176149
-0.00942057
-0.00376227
-0.00360754
-0.0093751
-0.0201135
-0.0342756
-0.0496524
-0.0644101
-0.0776389
-0.0884024
-0.0951754
-0.0967923
-0.0930694
-0.0843877
-0.0717311
-0.0568711
-0.0418382
-0.0279926
-0.0158104
-0.00507631
-0.00459663
-0.0144161
-0.0257646
-0.0387694
-0.0528508
-0.0666393
-0.0782068
-0.086
-0.089377
-0.0883316
-0.0831831
-0.0748587
-0.0643553
-0.0520238
-0.0383253
-0.024864
-0.0138672
-0.00713002
-0.00595885
-0.0102065
-0.0170125
-0.0219537
-0.0222254
-0.0184454
-0.0136907
-0.0113035
-0.0130543
-0.0179175
-0.0219354
-0.0210885
-0.0153842
-0.00898874
-0.00578271
-0.00576423
-0.00539336
-0.000758678
0.00937607
0.0227331
0.0349236
0.0421869
0.0442396
0.0441453
0.0450364
0.0475122
0.0498225
0.0501644
0.048516
0.0460489
0.043919
0.0427947
0.042795
0.0439197
0.0460493
0.0485155
0.0501629
0.0498203
0.0475096
0.0450338
0.0441425
0.0442365
0.0421838
0.034921
0.0227318
0.00937624
-0.000757247
-0.00539113
-0.0057615
-0.0057794
-0.0089846
-0.0153792
-0.021083
-0.0219301
-0.017913
-0.0130516
-0.0113028
-0.013692
-0.0184482
-0.0222294
-0.0219583
-0.0170174
-0.0102113
-0.00596319
-0.00713356
-0.0138696
-0.0248649
-0.0383245
-0.0520215
-0.064352
-0.0748551
-0.0831797
-0.0883288
-0.0893752
-0.0859993
-0.078207
-0.06664
-0.0528516
-0.0387701
-0.0257651
-0.0144165
-0.00459673
-0.0039431
-0.0124858
-0.0226006
-0.0343311
-0.0470532
-0.0595012
-0.0699383
-0.0770078
-0.0803011
-0.08009
-0.0767864
-0.071057
-0.0633693
-0.0535268
-0.041576
-0.0288787
-0.0176522
-0.00994874
-0.00745969
-0.0103609
-0.0160133
-0.0201556
-0.0201538
-0.016823
-0.0133654
-0.0130543
-0.0174792
-0.0253174
-0.0320743
-0.0330598
-0.0278183
-0.0204708
-0.0152456
-0.0127063
-0.0099457
-0.00361586
0.00738813
0.021285
0.0343733
0.0430858
0.0466552
0.0475073
0.0487023
0.0514427
0.0546967
0.0568984
0.0576493
0.0574512
0.0569498
0.0566374
0.0566379
0.056951
0.0574524
0.0576497
0.056898
0.0546958
0.0514415
0.0487009
0.0475054
0.0466528
0.0430832
0.034371
0.0212836
0.00738781
-0.00361539
-0.00994481
-0.0127051
-0.0152436
-0.0204675
-0.0278136
-0.0330541
-0.0320681
-0.0253117
-0.0174747
-0.0130516
-0.0133645
-0.0168239
-0.0201563
-0.0201593
-0.016018
-0.0103663
-0.00746515
-0.00995383
-0.0176563
-0.0288813
-0.0415768
-0.0535257
-0.0633667
-0.0710535
-0.0767827
-0.0800867
-0.0802989
-0.0770069
-0.0699384
-0.0595018
-0.047054
-0.0343318
-0.0226011
-0.012486
-0.00394311
-0.00357535
-0.0113434
-0.0205884