/*--------------------------------*- C++ -*----------------------------------*\
  =========                 |
  \\      /  F ield         | OpenFOAM: The Open Source CFD Toolbox
   \\    /   O peration     | Website:  https://openfoam.org
    \\  /    A nd           | Version:  10
     \\/     M anipulation  |
\*---------------------------------------------------------------------------*/
FoamFile
{
    format      ascii;
    class       volScalarField;
    location    "15";
    object      h;
}
// * * * * * * * * * * * * * * * * * * * * * * * * * * * * * * * * * * * * * //

dimensions      [0 1 0 0 0 0 0];

internalField   nonuniform List<scalar> 
10000
(
4.9256e-08
2.16053e-07
6.64458e-07
1.90209e-06
5.17183e-06
1.33672e-05
3.28092e-05
7.63861e-05
0.000168509
0.000351867
0.00069483
0.00129652
0.00228462
0.00380008
0.00596522
0.00883714
0.0123571
0.0163127
0.0203309
0.0239111
0.0264928
0.0275446
0.0266491
0.023571
0.0182983
0.0110574
0.00230275
-0.00731736
-0.0170243
-0.0259973
-0.0334784
-0.0388734
-0.0418284
-0.0422649
-0.040367
-0.0365285
-0.0312747
-0.0251772
-0.0187786
-0.0125374
-0.00679663
-0.00177538
0.00242157
0.00578331
0.00836667
0.0102698
0.0116083
0.0124957
0.0130287
0.0132772
0.0132773
0.0130292
0.0124965
0.0116094
0.0102712
0.00836819
0.00578489
0.00242309
-0.00177407
-0.00679568
-0.012537
-0.0187789
-0.0251782
-0.0312765
-0.0365311
-0.0403701
-0.0422684
-0.041832
-0.0388767
-0.0334812
-0.0259993
-0.0170252
-0.00731731
0.00230371
0.011059
0.0183005
0.0235734
0.0266514
0.0275466
0.0264944
0.023912
0.0203314
0.0163126
0.0123567
0.00883659
0.00596463
0.00379955
0.00228419
0.00129621
0.000694624
0.000351741
0.000168437
7.63479e-05
3.27902e-05
1.33584e-05
5.16797e-06
1.9005e-06
6.63836e-07
2.1583e-07
4.9201e-08
2.16053e-07
9.36149e-07
2.82814e-06
7.93873e-06
2.11494e-05
5.35234e-05
0.000128547
0.000292665
0.000630952
0.0012868
0.00248047
0.00451607
0.00776192
0.0125904
0.0192734
0.0278496
0.038001
0.0489874
0.0596763
0.0686766
0.0745437
0.0760063
0.0721621
0.0626155
0.0475491
0.0277364
0.0044959
-0.0204218
-0.0450181
-0.067291
-0.085501
-0.0984032
-0.105392
-0.106532
-0.102472
-0.0942841
-0.083255
-0.070695
-0.0577781
-0.0454417
-0.0343423
-0.0248591
-0.0171304
-0.0111095
-0.00662393
-0.00343236
-0.0012723
0.00010312
0.000898577
0.00125904
0.00125938
0.000899579
0.000104759
-0.00127007
-0.00342963
-0.00662081
-0.0111062
-0.0171271
-0.024856
-0.0343399
-0.0454403
-0.0577779
-0.0706964
-0.0832582
-0.0942889
-0.102479
-0.106539
-0.1054
-0.0984108
-0.0855075
-0.0672958
-0.0450208
-0.0204222
0.00449772
0.0277401
0.0475541
0.0626212
0.0721679
0.0760116
0.074548
0.0686796
0.0596779
0.0489877
0.0380003
0.0278483
0.0192718
0.0125889
0.00776067
0.00451513
0.00247982
0.00128638
0.00063071
0.000292532
0.00012848
5.3491e-05
2.11349e-05
7.93257e-06
2.82568e-06
9.35252e-07
2.1583e-07
6.64458e-07
2.82814e-06
8.32149e-06
2.2683e-05
5.85874e-05
0.000143548
0.000333304
0.000732541
0.00152225
0.0029879
0.0055349
0.00967044
0.0159301
0.0247403
0.0362354
0.0500818
0.0653783
0.0806924
0.0942388
0.104155
0.108793
0.106955
0.0980387
0.0821118
0.0599201
0.0328517
0.0028312
-0.0278789
-0.0569633
-0.0823792
-0.102642
-0.116999
-0.125447
-0.128623
-0.127586
-0.12359
-0.117869
-0.111485
-0.105248
-0.0996938
-0.095108
-0.0915774
-0.0890478
-0.0873787
-0.0863893
-0.0858916
-0.0857128
-0.0857079
-0.0857662
-0.0858137
-0.0858136
-0.0857658
-0.0857072
-0.0857118
-0.0858903
-0.0863877
-0.0873769
-0.0890458
-0.0915753
-0.095106
-0.0996922
-0.105247
-0.111485
-0.11787
-0.123592
-0.127589
-0.128628
-0.125454
-0.117005
-0.102649
-0.0823845
-0.0569669
-0.0278803
0.0028321
0.0328548
0.059925
0.082118
0.0980455
0.106961
0.108799
0.10416
0.094242
0.080694
0.0653784
0.0500806
0.0362336
0.0247382
0.0159281
0.00966885
0.00553372
0.0029871
0.00152175
0.000732255
0.000333152
0.000143471
5.85517e-05
2.26672e-05
8.31499e-06
2.82568e-06
6.63834e-07
1.90209e-06
7.93873e-06
2.2683e-05
5.98197e-05
0.000149168
0.000352175
0.000786357
0.00165844
0.00329959
0.0061863
0.01092
0.0181372
0.0283377
0.0416565
0.0576533
0.0752157
0.0926511
0.107962
0.119213
0.12486
0.123946
0.116144
0.101725
0.0815
0.0567777
0.0292797
0.000968373
-0.0262349
-0.050776
-0.071727
-0.0888812
-0.102659
-0.113874
-0.123453
-0.132203
-0.14066
-0.149062
-0.157386
-0.165442
-0.172974
-0.179738
-0.18556
-0.190356
-0.194135
-0.196978
-0.199016
-0.200401
-0.201285
-0.201795
-0.202026
-0.202026
-0.201796
-0.201286
-0.200403
-0.199018
-0.19698
-0.194137
-0.190358
-0.185561
-0.179739
-0.172975
-0.165442
-0.157385
-0.149061
-0.140659
-0.132202
-0.123453
-0.113874
-0.10266
-0.0888835
-0.0717296
-0.0507784
-0.0262366
0.000967998
0.0292809
0.0567805
0.0815042
0.10173
0.11615
0.123952
0.124866
0.119217
0.107965
0.0926528
0.0752159
0.0576522
0.0416546
0.0283354
0.0181351
0.0109182
0.00618499
0.00329872
0.0016579
0.000786051
0.000352014
0.000149089
5.97831e-05
2.26672e-05
7.93257e-06
1.90049e-06
5.17183e-06
2.11494e-05
5.85874e-05
0.000149168
0.000358227
0.000812632
0.00173923
0.00350675
0.00665154
0.0118539
0.0198283
0.0311108
0.0457789
0.0632043
0.0819744
0.100077
0.115325
0.125848
0.130461
0.128755
0.12096
0.107739
0.0900353
0.069048
0.0462128
0.0230808
0.00103978
-0.0190287
-0.036979
-0.0533827
-0.0692576
-0.0856668
-0.103354
-0.122532
-0.142867
-0.163613
-0.183828
-0.202585
-0.219142
-0.233026
-0.24406
-0.252323
-0.258095
-0.26178
-0.263842
-0.264745
-0.264916
-0.264716
-0.264425
-0.264232
-0.264233
-0.264426
-0.264718
-0.264918
-0.264748
-0.263846
-0.261785
-0.2581
-0.252328
-0.244065
-0.233031
-0.219146
-0.202588
-0.183829
-0.163613
-0.142865
-0.122529
-0.103351
-0.0856637
-0.0692551
-0.0533812
-0.0369784
-0.0190288
0.00103948
0.0230809
0.0462136
0.0690498
0.0900381
0.107742
0.120965
0.12876
0.130466
0.125853
0.115328
0.10008
0.0819749
0.0632033
0.0457769
0.0311085
0.0198261
0.011852
0.00665015
0.00350583
0.00173867
0.000812317
0.000358063
0.000149089
5.85517e-05
2.11349e-05
5.16796e-06
1.33672e-05
5.35234e-05
0.000143548
0.000352175
0.000812632
0.00176661
0.00361324
0.00694099
0.0125024
0.0210849
0.0332549
0.0490181
0.0675281
0.0870279
0.10515
0.11952
0.128409
0.131105
0.127844
0.119422
0.10677
0.0907811
0.0723887
0.0527184
0.033052
0.0145139
-0.00236803
-0.0179277
-0.0332438
-0.0496761
-0.0682934
-0.0894623
-0.112736
-0.137023
-0.160923
-0.183069
-0.20239
-0.218243
-0.230424
-0.239095
-0.244673
-0.247717
-0.24883
-0.24859
-0.24751
-0.246019
-0.244457
-0.243078
-0.242064
-0.241529
-0.241529
-0.242064
-0.243079
-0.244458
-0.246022
-0.247513
-0.248594
-0.248834
-0.247722
-0.244679
-0.239101
-0.23043
-0.218248
-0.202395
-0.183072
-0.160925
-0.137023
-0.112734
-0.0894592
-0.0682896
-0.0496724
-0.0332409
-0.0179258
-0.00236709
0.0145144
0.0330525
0.0527192
0.07239
0.090783
0.106773
0.119425
0.127848
0.131109
0.128414
0.119524
0.105153
0.0870289
0.0675275
0.0490164
0.0332526
0.0210826
0.0125004
0.00693956
0.0036123
0.00176604
0.000812317
0.000352014
0.000143471
5.3491e-05
1.33584e-05
3.28092e-05
0.000128547
0.000333304
0.000786357
0.00173923
0.00361324
0.00703974
0.0128371
0.0218669
0.0347357
0.0513917
0.0707794
0.0907953
0.108713
0.121993
0.129103
0.129876
0.125195
0.116261
0.103978
0.0888378
0.0712874
0.0521685
0.0327872
0.0144701
-0.00210993
-0.017336
-0.032447
-0.0488439
-0.0673382
-0.0877555
-0.109023
-0.129599
-0.147979
-0.163086
-0.174436
-0.182108
-0.186587
-0.188568
-0.188789
-0.187907
-0.186446
-0.184777
-0.183142
-0.181676
-0.180446
-0.179474
-0.178759
-0.17829
-0.178059
-0.178059
-0.17829
-0.178759
-0.179474
-0.180447
-0.181677
-0.183142
-0.184778
-0.186447
-0.187909
-0.188791
-0.188572
-0.186591
-0.182113
-0.174441
-0.163091
-0.147983
-0.129602
-0.109024
-0.0877548
-0.0673363
-0.0488414
-0.0324448
-0.0173345
-0.00210912
0.0144707
0.0327879
0.0521698
0.0712891
0.0888397
0.10398
0.116264
0.125198
0.12988
0.129108
0.121997
0.108716
0.0907967
0.0707791
0.0513901
0.0347334
0.0218645
0.0128351
0.0070383
0.0036123
0.00173867
0.000786051
0.000333152
0.00012848
3.27902e-05
7.63861e-05
0.000292665
0.000732541
0.00165844
0.00350675
0.00694099
0.0128371
0.0221327
0.0354935
0.0528443
0.0729584
0.0934116
0.111127
0.123413
0.128966
0.128195
0.122587
0.113559
0.101646
0.0866105
0.0682788
0.0473817
0.0256767
0.00520359
-0.0128148
-0.0286053
-0.0435171
-0.0589823
-0.0755227
-0.0924271
-0.108158
-0.121091
-0.130145
-0.135065
-0.136348
-0.134964
-0.132016
-0.12849
-0.125109
-0.122298
-0.120228
-0.11889
-0.118169
-0.117908
-0.117948
-0.118154
-0.118422
-0.118676
-0.118869
-0.118972
-0.118972
-0.118869
-0.118676
-0.118421
-0.118154
-0.117947
-0.117907
-0.118168
-0.118889
-0.120227
-0.122297
-0.125109
-0.128491
-0.132017
-0.134966
-0.136352
-0.135069
-0.13015
-0.121095
-0.108161
-0.0924291
-0.0755232
-0.0589819
-0.0435166
-0.0286052
-0.0128151
0.00520356
0.0256775
0.0473836
0.0682813
0.086613
0.101649
0.113561
0.12259
0.128198
0.12897
0.123417
0.111131
0.0934133
0.0729583
0.0528427
0.0354912
0.0221303
0.0128351
0.00693956
0.00350583
0.0016579
0.000732255
0.000292532
7.63478e-05
0.000168509
0.000630952
0.00152225
0.00329959
0.00665154
0.0125024
0.0218669
0.0354935
0.0533333
0.0740511
0.0949492
0.112611
0.12417
0.12853
0.126664
0.12061
0.111828
0.100218
0.0845929
0.0641895
0.0399569
0.0145951
-0.00872987
-0.0280983
-0.0437336
-0.05741
-0.0708566
-0.084416
-0.096878
-0.106367
-0.111454
-0.111795
-0.108128
-0.101845
-0.0944654
-0.0872259
-0.0809085
-0.0758477
-0.0720473
-0.0693257
-0.0674359
-0.0661429
-0.0652593
-0.0646517
-0.0642323
-0.0639447
-0.0637523
-0.0636294
-0.0635578
-0.0635252
-0.0635252
-0.0635576
-0.0636291
-0.0637518
-0.0639442
-0.0642317
-0.0646509
-0.0652584
-0.0661419
-0.0674348
-0.0693244
-0.0720459
-0.0758464
-0.0809076
-0.0872256
-0.0944662
-0.101848
-0.108131
-0.1118
-0.111459
-0.106372
-0.0968818
-0.0844183
-0.0708578
-0.057411
-0.043735
-0.0281001
-0.00873117
0.0145953
0.039959
0.0641929
0.0845964
0.10022
0.11183
0.120612
0.126667
0.128533
0.124174
0.112615
0.0949511
0.074051
0.0533317
0.0354912
0.0218645
0.0125004
0.00665015
0.00329872
0.00152175
0.00063071
0.000168437
0.000351867
0.0012868
0.0029879
0.0061863
0.0118539
0.0210849
0.0347357
0.0528443
0.0740511
0.0954558
0.113314
0.124521
0.1281
0.125522
0.119325
0.110929
0.0994461
0.0826531
0.0593394
0.0310626
0.00188538
-0.0237093
-0.0432526
-0.0573753
-0.0687377
-0.079636
-0.0902223
-0.0986467
-0.10267
-0.101219
-0.0948527
-0.0852487
-0.0743634
-0.0637686
-0.0543677
-0.0464595
-0.0399642
-0.0346535
-0.0303074
-0.0267787
-0.023989
-0.0218963
-0.0204578
-0.0196054
-0.0192393
-0.0192328
-0.0194471
-0.0197471
-0.0200175
-0.0201746
-0.0201744
-0.0200169
-0.0197461
-0.0194457
-0.0192312
-0.0192374
-0.0196034
-0.0204557
-0.0218942
-0.023987
-0.0267768
-0.0303057
-0.0346519
-0.0399626
-0.046458
-0.0543665
-0.0637681
-0.0743641
-0.085251
-0.0948566
-0.101224
-0.102675
-0.0986514
-0.0902255
-0.079638
-0.0687395
-0.0573779
-0.0432559
-0.0237122
0.00188447
0.0310645
0.0593433
0.0826576
0.0994496
0.110931
0.119327
0.125524
0.128104
0.124526
0.113318
0.0954578
0.074051
0.0528427
0.0347334
0.0210826
0.011852
0.00618499
0.0029871
0.00128638
0.00035174
0.00069483
0.00248047
0.0055349
0.01092
0.0198283
0.0332549
0.0513917
0.0729584
0.0949492
0.113314
0.124622
0.127848
0.124835
0.118604
0.110558
0.0990206
0.0807371
0.0542038
0.0218959
-0.0105276
-0.0373321
-0.0558401
-0.0675023
-0.0761554
-0.0846944
-0.0928438
-0.0978242
-0.0969841
-0.0898512
-0.0781487
-0.0644642
-0.0510019
-0.0390376
-0.0289716
-0.0207115
-0.014056
-0.00888727
-0.00519912
-0.00303161
-0.00238003
-0.00314011
-0.00509814
-0.00795176
-0.0113547
-0.0149567
-0.0184379
-0.0215294
-0.0240208
-0.0257614
-0.0266548
-0.0266547
-0.025761
-0.0240201
-0.0215284
-0.0184365
-0.0149549
-0.0113525
-0.007949
-0.00509497
-0.00313664
-0.00237641
-0.003028
-0.00519568
-0.00888409
-0.0140531
-0.0207089
-0.0289693
-0.0390359
-0.0510011
-0.0644649
-0.0781514
-0.0898559
-0.0969898
-0.0978295
-0.0928476
-0.0846966
-0.0761573
-0.0675055
-0.0558446
-0.0373365
-0.0105299
0.0218971
0.054208
0.0807423
0.0990248
0.11056
0.118606
0.124838
0.127852
0.124626
0.113318
0.0949511
0.0729583
0.0513901
0.0332526
0.0198261
0.0109182
0.00553372
0.00247982
0.000694622
0.00129652
0.00451607
0.00967044
0.0181372
0.0311108
0.0490181
0.0707794
0.0934116
0.112611
0.124521
0.127848
0.124608
0.118292
0.110446
0.0987665
0.079024
0.0494718
0.0136191
-0.0212532
-0.0483971
-0.0652758
-0.0743203
-0.0804566
-0.0869735
-0.0929284
-0.0944731
-0.0887196
-0.0762728
-0.0604321
-0.0446783
-0.031091
-0.0203419
-0.0123103
-0.00668802
-0.00333984
-0.00228515
-0.00351665
-0.00687081
-0.0119758
-0.0182917
-0.0252189
-0.032191
-0.0387497
-0.0445819
-0.0495124
-0.0534863
-0.056527
-0.0587045
-0.0600986
-0.060777
-0.0607772
-0.0600991
-0.0587054
-0.0565281
-0.0534876
-0.0495136
-0.044583
-0.0387503
-0.032191
-0.0252181
-0.0182901
-0.0119733
-0.00686756
-0.00351288
-0.00228112
-0.00333579
-0.00668409
-0.0123065
-0.0203384
-0.0310882
-0.0446767
-0.0604326
-0.0762761
-0.088725
-0.094479
-0.0929328
-0.086976
-0.0804585
-0.0743236
-0.0652809
-0.0484027
-0.0212569
0.0136194
0.049476
0.0790297
0.0987713
0.110448
0.118293
0.124611
0.127852
0.124526
0.112615
0.0934133
0.0707791
0.0490164
0.0311085
0.0181351
0.00966885
0.00451513
0.00129621
0.00228462
0.00776192
0.0159301
0.0283377
0.0457789
0.0675281
0.0907953
0.111127
0.12417
0.1281
0.124835
0.118292
0.110427
0.0986368
0.0778177
0.0458546
0.00715348
-0.0295098
-0.0566209
-0.0719869
-0.078833
-0.0827215
-0.0871114
-0.0905389
-0.0883859
-0.0779221
-0.0612988
-0.0436292
-0.028982
-0.0186228
-0.0121256
-0.00880991
-0.00822135
-0.0101722
-0.0144893
-0.0206886
-0.0279779
-0.0354329
-0.0421804
-0.0475808
-0.0513128
-0.0533403
-0.0538684
-0.0532351
-0.0518358
-0.0500594
-0.0482411
-0.046653
-0.0454891
-0.044877
-0.0448772
-0.0454897
-0.046654
-0.0482425
-0.0500613
-0.0518382
-0.053238
-0.0538718
-0.053344
-0.0513165
-0.0475841
-0.042183
-0.0354345
-0.0279782
-0.0206876
-0.0144871
-0.0101691
-0.00821774
-0.00880595
-0.0121213
-0.0186184
-0.0289781
-0.043627
-0.0612997
-0.0779264
-0.0883916
-0.0905436
-0.0871141
-0.0827235
-0.0788363
-0.0719924
-0.0566273
-0.0295144
0.00715304
0.0458586
0.0778238
0.0986419
0.110429
0.118293
0.124838
0.128104
0.124174
0.111131
0.0907967
0.0675275
0.0457769
0.0283354
0.0159281
0.00776067
0.00228418
0.00380008
0.0125904
0.0247403
0.0416565
0.0632043
0.0870279
0.108713
0.123413
0.12853
0.125522
0.118604
0.110446
0.0986368
0.0773816
0.043901
0.00308357
-0.0350103
-0.0621965
-0.0766204
-0.0818943
-0.0835815
-0.0852669
-0.0857112
-0.080267
-0.066586
-0.0482661
-0.0319039
-0.0214709
-0.0165461
-0.0151076
-0.0160852
-0.0191385
-0.0238819
-0.0296933
-0.0355146
-0.0401029
-0.042538
-0.0423936
-0.0397493
-0.0351184
-0.0292047
-0.0227294
-0.0163301
-0.0104461
-0.00536754
-0.00121052
0.00200215
0.00431961
0.00581044
0.00653776
0.00653793
0.00581094
0.00432037
0.00200309
-0.00120953
-0.00536669
-0.0104456
-0.0163301
-0.0227303
-0.0292065
-0.0351212
-0.039753
-0.0423978
-0.0425421
-0.0401065
-0.0355171
-0.0296944
-0.0238817
-0.0191371
-0.0160829
-0.0151045
-0.016542
-0.021466
-0.0318996
-0.0482646
-0.0665884
-0.0802717
-0.0857155
-0.0852695
-0.0835837
-0.0818978
-0.0766261
-0.0622033
-0.0350156
0.00308262
0.0439049
0.0773878
0.0986419
0.110448
0.118606
0.125524
0.128533
0.123417
0.108716
0.0870289
0.0632033
0.0416546
0.0247382
0.0125889
0.00379954
0.00596522
0.0192734
0.0362354
0.0576533
0.0819744
0.10515
0.121993
0.128966
0.126664
0.119325
0.110558
0.0987665
0.0778177
0.043901
0.0016993
-0.0377373
-0.0654126
-0.079605
-0.0839424
-0.0834126
-0.0818091
-0.0792737
-0.072073
-0.0578553
-0.0405979
-0.027544
-0.0220235
-0.0215727
-0.0225878
-0.024237
-0.0270158
-0.0303704
-0.0331428
-0.0341721
-0.032487
-0.0279938
-0.0214208
-0.0138175
-0.00630912
0.000182034
0.00516963
0.00846536
0.0101978
0.0106726
0.0102398
0.00929755
0.00814858
0.00707629
0.00625487
0.00581728
0.00581746
0.00625541
0.00707722
0.00814994
0.00929938
0.0102421
0.0106753
0.0102009
0.00846858
0.0051727
0.000184558
-0.00630754
-0.0138173
-0.021422
-0.0279962
-0.0324903
-0.0341755
-0.0331456
-0.0303721
-0.0270164
-0.0242368
-0.0225869
-0.0215706
-0.0220195
-0.0275392
-0.0405949
-0.057856
-0.0720761
-0.0792768
-0.0818113
-0.083415
-0.0839463
-0.0796109
-0.0654196
-0.0377428
0.00169817
0.0439049
0.0778238
0.0987713
0.11056
0.119327
0.126667
0.12897
0.121997
0.105153
0.0819749
0.0576522
0.0362336
0.0192718
0.00596462
0.00883714
0.0278496
0.0500818
0.0752157
0.100077
0.11952
0.129103
0.128195
0.12061
0.110929
0.0990206
0.079024
0.0458546
0.00308357
-0.0377373
-0.0664637
-0.0810917
-0.0851355
-0.0827113
-0.0777484
-0.0727704
-0.0658893
-0.0538147
-0.0390181
-0.0286003
-0.0256634
-0.0264548
-0.026433
-0.0256322
-0.0260886
-0.0270734
-0.0264907
-0.0236225
-0.0185209
-0.0120627
-0.00593035
-0.0014083
0.000863307
0.000714142
-0.0014428
-0.00493537
-0.00917113
-0.0134902
-0.0175496
-0.0210572
-0.02392
-0.0261233
-0.0276928
-0.0287018
-0.0291877
-0.0291878
-0.0287021
-0.0276934
-0.0261239
-0.0239206
-0.0210577
-0.0175498
-0.0134898
-0.00917011
-0.00493355
-0.00144017
0.000717406
0.000866834
-0.00140507
-0.00592801
-0.0120618
-0.0185215
-0.0236242
-0.0264928
-0.027075
-0.0260893
-0.0256325
-0.0264336
-0.0264547
-0.0256611
-0.0285964
-0.0390154
-0.0538148
-0.0658909
-0.0727718
-0.0777498
-0.0827139
-0.0851398
-0.0810977
-0.0664708
-0.0377428
0.00308262
0.0458586
0.0790297
0.0990248
0.110931
0.120612
0.128198
0.129108
0.119524
0.10008
0.0752159
0.0500806
0.0278483
0.00883658
0.0123571
0.038001
0.0653783
0.0926511
0.115325
0.128409
0.129876
0.122587
0.111828
0.0994461
0.0807371
0.0494718
0.00715348
-0.0350103
-0.0654126
-0.0810917
-0.0855277
-0.0821219
-0.0744972
-0.0677131
-0.062567
-0.0541262
-0.0413133
-0.0307284
-0.0269226
-0.02648
-0.0245103
-0.0215983
-0.0211104
-0.0220741
-0.0207153
-0.0168822
-0.0124414
-0.00857787
-0.00684534
-0.00789022
-0.0109875
-0.0152691
-0.01984
-0.0237473
-0.0266809
-0.0284852
-0.0291882
-0.0291584
-0.0285037
-0.0276422
-0.0266627
-0.0258302
-0.0251952
-0.0248699
-0.02487
-0.0251955
-0.0258308
-0.0266635
-0.0276434
-0.0285052
-0.0291601
-0.0291902
-0.0284873
-0.0266828
-0.0237488
-0.0198407
-0.0152688
-0.0109861
-0.00788787
-0.00684254
-0.0085755
-0.0124401
-0.0168822
-0.0207164
-0.0220751
-0.0211101
-0.0215977
-0.0245106
-0.0264803
-0.0269212
-0.0307258
-0.0413122
-0.0541271
-0.0625677
-0.0677128
-0.0744977
-0.0821246
-0.0855321
-0.0810977
-0.0654196
-0.0350156
0.00715304
0.049476
0.0807423
0.0994496
0.11183
0.12259
0.12988
0.128414
0.115328
0.0926528
0.0653784
0.0380003
0.0123567
0.0163127
0.0489874
0.0806924
0.107962
0.125848
0.131105
0.125195
0.113559
0.100218
0.0826531
0.0542038
0.0136191
-0.0295098
-0.0621965
-0.079605
-0.0851355
-0.0821219
-0.0732581
-0.0650178
-0.061443
-0.0565577
-0.0444392
-0.0308468
-0.0239868
-0.0224716
-0.020735
-0.0184052
-0.0189072
-0.0214001
-0.0205255
-0.0162445
-0.0131887
-0.0123359
-0.0134583
-0.0166169
-0.0200339
-0.0224043
-0.0235063
-0.0230812
-0.0213254
-0.0190161
-0.0162134
-0.0135691
-0.0111526
-0.00908802
-0.00751179
-0.00624552
-0.00542588
-0.00485316
-0.00460607
-0.00460601
-0.00485298
-0.00542561
-0.00624519
-0.00751147
-0.00908775
-0.0111525
-0.0135693
-0.0162141
-0.0190172
-0.021327
-0.0230833
-0.0235084
-0.0224061
-0.020035
-0.0166169
-0.0134571
-0.0123342
-0.013187
-0.0162439
-0.0205266
-0.0214011
-0.0189065
-0.018404
-0.0207344
-0.0224708
-0.0239846
-0.0308448
-0.04444
-0.05656
-0.0614434
-0.0650166
-0.0732583
-0.0821246
-0.0851398
-0.0796109
-0.0622033
-0.0295144
0.0136194
0.054208
0.0826576
0.10022
0.113561
0.125198
0.131109
0.125853
0.107965
0.080694
0.0489877
0.0163126
0.0203309
0.0596763
0.0942388
0.119213
0.130461
0.127844
0.116261
0.101646
0.0845929
0.0593394
0.0218959
-0.0212532
-0.0566209
-0.0766204
-0.0839424
-0.0827113
-0.0744972
-0.0650178
-0.0612679
-0.0585555
-0.0465421
-0.0289568
-0.0188019
-0.0180726
-0.0193554
-0.01949
-0.0206938
-0.0231962
-0.0220424
-0.0164369
-0.0136156
-0.0150302
-0.0167481
-0.0187138
-0.019893
-0.0188466
-0.0166445
-0.0140139
-0.0110036
-0.00856216
-0.00675652
-0.00528507
-0.00471149
-0.00415196
-0.00418347
-0.004142
-0.00432076
-0.00443496
-0.00455693
-0.00461658
-0.00461654
-0.00455675
-0.00443467
-0.00432033
-0.00414144
-0.00418277
-0.00415111
-0.00471058
-0.00528407
-0.00675566
-0.0085615
-0.0110034
-0.0140143
-0.0166455
-0.0188481
-0.0198948
-0.0187149
-0.0167484
-0.0150295
-0.0136137
-0.016436
-0.0220439
-0.0231978
-0.0206939
-0.0194894
-0.0193546
-0.0180703
-0.0187979
-0.0289545
-0.0465442
-0.0585588
-0.0612683
-0.0650166
-0.0744977
-0.0827139
-0.0839463
-0.0766261
-0.0566273
-0.0212569
0.0218971
0.0593433
0.0845964
0.101649
0.116264
0.127848
0.130466
0.119217
0.094242
0.0596779
0.0203313
0.0239111
0.0686766
0.104155
0.12486
0.128755
0.119422
0.103978
0.0866105
0.0641895
0.0310626
-0.0105276
-0.0483971
-0.0719869
-0.0818943
-0.0834126
-0.0777484
-0.0677131
-0.061443
-0.0585555
-0.0472205
-0.0271038
-0.0143892
-0.0156218
-0.0209804
-0.023287
-0.0234298
-0.0233432
-0.021276
-0.0153293
-0.0123114
-0.0157403
-0.0176692
-0.0169168
-0.0162144
-0.0136461
-0.0105809
-0.00867304
-0.00719776
-0.00618656
-0.00638
-0.00633807
-0.00691323
-0.00757188
-0.00800459
-0.00887424
-0.00916536
-0.00987563
-0.0100645
-0.0104447
-0.0105133
-0.0105133
-0.0104447
-0.0100644
-0.00987556
-0.00916521
-0.00887404
-0.00800421
-0.00757142
-0.00691257
-0.00633719
-0.00637905
-0.00618534
-0.00719668
-0.00867217
-0.0105803
-0.0136465
-0.0162154
-0.0169178
-0.0176706
-0.0157404
-0.0123093
-0.0153281
-0.0212771
-0.0233447
-0.023431
-0.023288
-0.0209804
-0.0156186
-0.0143835
-0.027101
-0.0472231
-0.0585588
-0.0614434
-0.0677128
-0.0777498
-0.083415
-0.0818978
-0.0719924
-0.0484027
-0.0105299
0.0310645
0.0641929
0.086613
0.10398
0.119425
0.12876
0.124866
0.10416
0.0686796
0.023912
0.0264928
0.0745437
0.108793
0.123946
0.12096
0.10677
0.0888378
0.0682788
0.0399569
0.00188538
-0.0373321
-0.0652758
-0.078833
-0.0835815
-0.0818091
-0.0727704
-0.062567
-0.0565577
-0.0465421
-0.0271038
-0.0127221
-0.0149219
-0.0234465
-0.026727
-0.0248934
-0.0213314
-0.0183683
-0.0145319
-0.0117061
-0.0154514
-0.0179323
-0.0140997
-0.0120147
-0.0105657
-0.00812589
-0.00787029
-0.00848648
-0.00879268
-0.010079
-0.0116197
-0.0124099
-0.0144139
-0.0150557
-0.0165523
-0.0172298
-0.0179858
-0.0185513
-0.0188122
-0.0191197
-0.0191697
-0.0191698
-0.0191199
-0.0188125
-0.0185518
-0.0179863
-0.0172303
-0.0165528
-0.0150561
-0.0144143
-0.0124099
-0.0116197
-0.0100787
-0.00879192
-0.00848571
-0.00786908
-0.00812462
-0.0105652
-0.0120143
-0.0141
-0.0179342
-0.0154517
-0.0117042
-0.0145307
-0.0183682
-0.0213321
-0.0248952
-0.0267295
-0.0234475
-0.0149183
-0.0127158
-0.027101
-0.0465442
-0.05656
-0.0625677
-0.0727718
-0.0818113
-0.0835837
-0.0788363
-0.0652809
-0.0373365
0.00188447
0.039959
0.0682813
0.0888397
0.106773
0.120965
0.123952
0.108799
0.074548
0.0264944
0.0275446
0.0760063
0.106955
0.116144
0.107739
0.0907811
0.0712874
0.0473817
0.0145951
-0.0237093
-0.0558401
-0.0743203
-0.0827215
-0.0852669
-0.0792737
-0.0658893
-0.0541262
-0.0444392
-0.0289568
-0.0143892
-0.0149219
-0.02454
-0.0284106
-0.0252109
-0.0192643
-0.0150101
-0.0141375
-0.0126843
-0.0140297
-0.0170527
-0.0125745
-0.00930175
-0.0112082
-0.0104944
-0.0110958
-0.0134188
-0.0144939
-0.0154598
-0.0173762
-0.0173603
-0.0177424
-0.0177329
-0.0161954
-0.0160524
-0.0138263
-0.0133975
-0.011573
-0.0110967
-0.0101348
-0.0099319
-0.00993187
-0.0101349
-0.0110968
-0.0115732
-0.0133978
-0.0138267
-0.0160532
-0.0161962
-0.0177341
-0.0177436
-0.0173614
-0.0173775
-0.0154605
-0.0144944
-0.0134192
-0.0110952
-0.0104937
-0.0112078
-0.00930018
-0.0125743
-0.0170544
-0.0140298
-0.0126832
-0.0141364
-0.0150087
-0.0192642
-0.0252129
-0.0284138
-0.0245414
-0.0149183
-0.0143835
-0.0289545
-0.04444
-0.0541271
-0.0658909
-0.0792768
-0.0852695
-0.0827235
-0.0743236
-0.0558446
-0.0237122
0.0145953
0.0473836
0.071289
0.090783
0.107742
0.11615
0.106961
0.0760115
0.0275466
0.0266491
0.0721621
0.0980387
0.101725
0.0900353
0.0723887
0.0521685
0.0256767
-0.00872987
-0.0432526
-0.0675023
-0.0804566
-0.0871114
-0.0857112
-0.072073
-0.0538147
-0.0413133
-0.0308468
-0.0188019
-0.0156218
-0.0234465
-0.0284106
-0.0252083
-0.0183341
-0.0123412
-0.0127681
-0.0147288
-0.0136418
-0.0157263
-0.0145224
-0.0102899
-0.0137668
-0.0150312
-0.0134818
-0.0153464
-0.0153129
-0.0137685
-0.0128398
-0.0110742
-0.00727083
-0.00602093
-0.0020807
-0.000634525
0.0013355
0.00286721
0.00308132
0.00422853
0.0037933
0.00435914
0.00411957
0.00411965
0.00435953
0.0037938
0.00422938
0.00308217
0.00286835
0.00133654
-0.000633546
-0.00207976
-0.00602066
-0.00727054
-0.0110747
-0.0128407
-0.0137692
-0.0153142
-0.0153473
-0.0134819
-0.015032
-0.0137669
-0.0102885
-0.0145227
-0.0157273
-0.0136419
-0.0147288
-0.0127666
-0.0123389
-0.0183337
-0.0252104
-0.0284138
-0.0234475
-0.0156186
-0.0187979
-0.0308448
-0.0413122
-0.0538148
-0.0720761
-0.0857155
-0.0871141
-0.0804585
-0.0675055
-0.0432559
-0.00873117
0.0256775
0.0521698
0.07239
0.0900381
0.10173
0.0980455
0.0721679
0.0266514
0.023571
0.0626155
0.0821118
0.0815
0.069048
0.0527184
0.0327872
0.00520359
-0.0280983
-0.0573753
-0.0761554
-0.0869735
-0.0905389
-0.080267
-0.0578553
-0.0390181
-0.0307284
-0.0239868
-0.0180726
-0.0209804
-0.026727
-0.0252109
-0.0183341
-0.011286
-0.0110525
-0.0170268
-0.0168361
-0.0149212
-0.0164904
-0.0126713
-0.0123664
-0.0148426
-0.0108066
-0.0103555
-0.0101714
-0.00703524
-0.00492244
-0.00411138
-0.00200441
-0.00216642
-0.00400555
-0.0039832
-0.00849361
-0.00879679
-0.0130523
-0.0138535
-0.0165165
-0.01734
-0.0184899
-0.0188279
-0.0188281
-0.01849
-0.0173403
-0.0165167
-0.0138537
-0.0130524
-0.00879643
-0.00849329
-0.00398205
-0.00400446
-0.00216496
-0.00200272
-0.00411042
-0.00492143
-0.00703472
-0.0101719
-0.0103555
-0.0108065
-0.0148437
-0.0123661
-0.0126708
-0.0164912
-0.0149216
-0.0168374
-0.0170278
-0.0110503
-0.0112832
-0.0183337
-0.0252129
-0.0267295
-0.0209804
-0.0180703
-0.0239846
-0.0307258
-0.0390154
-0.057856
-0.0802717
-0.0905436
-0.086976
-0.0761573
-0.0573779
-0.0281001
0.00520355
0.0327879
0.0527192
0.0690498
0.0815042
0.082118
0.0626212
0.0235734
0.0182983
0.0475491
0.0599201
0.0567777
0.0462128
0.033052
0.0144701
-0.0128148
-0.0437336
-0.0687377
-0.0846944
-0.0929284
-0.0883859
-0.066586
-0.0405979
-0.0286003
-0.0269226
-0.0224716
-0.0193554
-0.023287
-0.0248934
-0.0192643
-0.0123412
-0.0110525
-0.0181042
-0.0210319
-0.0143488
-0.0129661
-0.0125644
-0.00841041
-0.0105662
-0.00962416
-0.00759869
-0.00958648
-0.0080785
-0.00788482
-0.00968442
-0.0122055
-0.0134371
-0.0180708
-0.0185443
-0.0205363
-0.0213675
-0.0196678
-0.0206792
-0.0174272
-0.0181089
-0.0154669
-0.0157405
-0.0147715
-0.0147716
-0.0157407
-0.0154672
-0.0181096
-0.0174279
-0.0206805
-0.019669
-0.0213692
-0.0205379
-0.0185455
-0.0180722
-0.0134374
-0.0122055
-0.00968401
-0.00788372
-0.00807785
-0.00958641
-0.00759794
-0.00962408
-0.0105662
-0.00840933
-0.0125641
-0.0129656
-0.0143489
-0.0210347
-0.0181056
-0.0110503
-0.0123389
-0.0192642
-0.0248952
-0.023288
-0.0193546
-0.0224708
-0.0269212
-0.0285964
-0.0405949
-0.0665884
-0.0883916
-0.0929328
-0.0846966
-0.0687395
-0.0437351
-0.0128151
0.0144707
0.0330525
0.0462136
0.0567805
0.059925
0.0475541
0.0183005
0.0110574
0.0277364
0.0328517
0.0292797
0.0230808
0.0145139
-0.00210993
-0.0286053
-0.05741
-0.079636
-0.0928438
-0.0944731
-0.0779221
-0.0482661
-0.027544
-0.0256634
-0.02648
-0.020735
-0.01949
-0.0234298
-0.0213314
-0.0150101
-0.0127681
-0.0170268
-0.0210319
-0.0140352
-0.00699574
-0.0104261
-0.0102374
-0.00984628
-0.0134689
-0.0118945
-0.0122717
-0.0125639
-0.0121702
-0.0135947
-0.01455
-0.0138441
-0.0118547
-0.0107357
-0.00496442
-0.00435233
0.0013303
0.00206892
0.00506077
0.00608882
0.00674812
0.00763423
0.00745258
0.00779342
0.00779368
0.00745282
0.007635
0.00674883
0.00608989
0.0050618
0.00206984
0.00133127
-0.00435218
-0.00496422
-0.0107365
-0.0118557
-0.0138452
-0.0145513
-0.0135954
-0.0121702
-0.012564
-0.0122717
-0.0118947
-0.0134696
-0.00984607
-0.0102372
-0.0104252
-0.00699315
-0.0140353
-0.0210347
-0.0170278
-0.0127666
-0.0150087
-0.0213321
-0.023431
-0.0194894
-0.0207344
-0.0264803
-0.0256611
-0.0275392
-0.0482646
-0.0779264
-0.094479
-0.0928476
-0.079638
-0.057411
-0.0286052
-0.00210913
0.0145143
0.0230809
0.0292809
0.0328548
0.0277401
0.0110591
0.00230275
0.0044959
0.0028312
0.000968373
0.00103978
-0.00236803
-0.017336
-0.0435171
-0.0708566
-0.0902223
-0.0978242
-0.0887196
-0.0612988
-0.0319039
-0.0220235
-0.0264548
-0.0245103
-0.0184052
-0.0206938
-0.0233432
-0.0183683
-0.0141375
-0.0147288
-0.0168361
-0.0143488
-0.00699574
-0.0092553
-0.0163942
-0.0140605
-0.0135225
-0.0137297
-0.00982764
-0.00946353
-0.00933955
-0.00898392
-0.00724079
-0.00584092
-0.00255961
-0.00174937
-0.00108414
-0.000959906
-0.00445798
-0.00438704
-0.00975514
-0.00973956
-0.0142887
-0.0144332
-0.0170886
-0.0172515
-0.0180813
-0.0180813
-0.0172517
-0.0170887
-0.0144334
-0.0142889
-0.00973938
-0.00975496
-0.00438617
-0.00445705
-0.000958473
-0.0010826
-0.00174813
-0.00255852
-0.00584065
-0.00724089
-0.00898431
-0.00933975
-0.00946319
-0.0098273
-0.0137302
-0.013523
-0.0140616
-0.0163959
-0.00925395
-0.00699315
-0.0143489
-0.0168374
-0.0147288
-0.0141364
-0.0183682
-0.0233447
-0.0206939
-0.018404
-0.0245106
-0.0264547
-0.0220195
-0.0318996
-0.0612997
-0.088725
-0.0978295
-0.0902255
-0.0708578
-0.0435166
-0.0173346
-0.00236711
0.00103946
0.00096798
0.0028321
0.00449774
0.00230377
-0.00731736
-0.0204218
-0.0278789
-0.0262349
-0.0190287
-0.0179277
-0.032447
-0.0589823
-0.084416
-0.0986467
-0.0969841
-0.0762728
-0.0436292
-0.0214709
-0.0215727
-0.026433
-0.0215983
-0.0189072
-0.0231962
-0.021276
-0.0145319
-0.0126843
-0.0136418
-0.0149212
-0.0129661
-0.0104261
-0.0163942
-0.0167956
-0.00822151
-0.00814661
-0.00812556
-0.00628703
-0.00903786
-0.00926143
-0.00757491
-0.0074963
-0.00909059
-0.00932374
-0.0135992
-0.0146293
-0.0171852
-0.0182924
-0.0175061
-0.0182503
-0.0154036
-0.015762
-0.0128288
-0.0129386
-0.0112169
-0.0112313
-0.0112314
-0.011217
-0.0129389
-0.0128293
-0.0157628
-0.0154044
-0.0182515
-0.0175074
-0.0182937
-0.0171864
-0.0146301
-0.0135996
-0.00932329
-0.00909013
-0.00749556
-0.00757433
-0.00926177