/*--------------------------------*- C++ -*----------------------------------*\
  =========                 |
  \\      /  F ield         | OpenFOAM: The Open Source CFD Toolbox
   \\    /   O peration     | Website:  https://openfoam.org
    \\  /    A nd           | Version:  10
     \\/     M anipulation  |
\*---------------------------------------------------------------------------*/
FoamFile
{
    format      ascii;
    class       volScalarField;
    location    "57";
    object      h;
}
// * * * * * * * * * * * * * * * * * * * * * * * * * * * * * * * * * * * * * //

dimensions      [0 1 0 0 0 0 0];

internalField   nonuniform List<scalar> 
10000
(
0.000168764
0.000728005
0.00161119
0.00252027
0.00333234
0.0042552
0.00530375
0.00614397
0.00663018
0.00690559
0.00681401
0.00574795
0.00350137
0.000688422
-0.00199273
-0.00449535
-0.00714569
-0.00996501
-0.0125961
-0.0143696
-0.0145106
-0.0128108
-0.0101325
-0.00775728
-0.00619005
-0.00489311
-0.00308118
-0.000407277
0.00286169
0.00583197
0.0075751
0.00774756
0.00667362
0.00500109
0.00325054
0.00163
0.000160303
-0.00126948
-0.0026935
-0.00388542
-0.00457589
-0.00459477
-0.00389005
-0.00261102
-0.00105209
0.000490269
0.00178033
0.00271817
0.00329829
0.00355669
0.00355683
0.00329865
0.00271865
0.0017808
0.000490615
-0.00105195
-0.00261109
-0.00389031
-0.00459519
-0.00457644
-0.00388608
-0.00269422
-0.00127021
0.000159682
0.00162963
0.00325055
0.00500157
0.00667456
0.00774885
0.00757655
0.00583336
0.00286286
-0.000406392
-0.00308059
-0.00489283
-0.00619012
-0.00775777
-0.0101335
-0.0128123
-0.0145125
-0.0143716
-0.012598
-0.00996662
-0.00714683
-0.0044959
-0.00199265
0.000689112
0.00350258
0.00574943
0.00681549
0.00690686
0.00663121
0.00614471
0.00530413
0.00425527
0.00333222
0.00252009
0.00161097
0.000727784
0.00016866
0.000728005
0.00279901
0.00573698
0.00864055
0.011118
0.0137429
0.0165539
0.0186132
0.0195367
0.0197764
0.0189273
0.015301
0.00837589
-1.69373e-05
-0.00783227
-0.0149482
-0.0223588
-0.030199
-0.0374741
-0.0422436
-0.042259
-0.0369391
-0.0288233
-0.0216589
-0.016934
-0.0130927
-0.00783101
-0.000109853
0.00931118
0.0178668
0.0229069
0.0234876
0.0205896
0.0160851
0.0114231
0.00709364
0.00302685
-0.00118314
-0.00564354
-0.00963438
-0.0122462
-0.0128454
-0.0111701
-0.00759324
-0.00297273
0.00177936
0.00590153
0.00900786
0.0109989
0.0119214
0.0119218
0.0109999
0.00900915
0.00590282
0.00178032
-0.00297231
-0.00759344
-0.0111708
-0.0128467
-0.0122478
-0.00963616
-0.00564542
-0.00118494
0.0030254
0.00709285
0.0114233
0.0160866
0.0205923
0.0234913
0.0229111
0.017871
0.00931474
-0.000107152
-0.00782922
-0.0130918
-0.0169342
-0.0216604
-0.0288263
-0.0369435
-0.0422645
-0.0422493
-0.0374795
-0.0302035
-0.0223621
-0.01495
-0.00783231
-1.52852e-05
0.008379
0.0153049
0.0189313
0.01978
0.0195396
0.0186154
0.0165552
0.0137434
0.011118
0.00864036
0.00573661
0.00279856
0.00072778
0.00161119
0.00573698
0.0110827
0.0161836
0.0203525
0.0243984
0.0283531
0.0308237
0.0312867
0.0305035
0.0279305
0.0211135
0.00943048
-0.00415086
-0.016405
-0.02718
-0.0381457
-0.0496972
-0.0603665
-0.0670933
-0.0663492
-0.0572967
-0.044015
-0.0324298
-0.0249092
-0.019006
-0.0110127
0.000812127
0.0153206
0.0285604
0.0364796
0.0377137
0.0338727
0.0278398
0.021708
0.0159503
0.0101272
0.0034042
-0.00439218
-0.0119714
-0.0175871
-0.0198974
-0.0182106
-0.0129443
-0.0054329
0.00277612
0.0102951
0.0162558
0.0202615
0.02221
0.0222104
0.0202626
0.0162574
0.0102967
0.00277735
-0.00543239
-0.0129447
-0.0182119
-0.0198993
-0.0175894
-0.0119739
-0.00439459
0.00340213
0.0101257
0.0159498
0.0217088
0.0278422
0.0338768
0.0377193
0.036486
0.0285669
0.0153263
0.000816557
-0.0110097
-0.0190046
-0.0249095
-0.0324322
-0.0440198
-0.0573037
-0.0663577
-0.067102
-0.0603746
-0.049704
-0.0381508
-0.0271829
-0.0164056
-0.00414904
0.00943451
0.0211189
0.0279362
0.0305087
0.0312912
0.0308274
0.0283556
0.0243998
0.0203532
0.0161839
0.0110826
0.00573661
0.00161096
0.00252027
0.00864055
0.0161836
0.0232696
0.0289455
0.034096
0.0387062
0.0411232
0.0407754
0.0386392
0.0340813
0.0242294
0.00856441
-0.00903426
-0.0244811
-0.0376698
-0.0509082
-0.0649827
-0.0781139
-0.0862779
-0.0849005
-0.0730198
-0.0560102
-0.0415026
-0.0325356
-0.0259003
-0.0165977
-0.00213151
0.0161045
0.0330945
0.0436939
0.0462003
0.0426769
0.0366842
0.0306554
0.0248223
0.018201
0.00949586
-0.0014907
-0.0128899
-0.022038
-0.026759
-0.0257927
-0.0194277
-0.00933184
0.00237931
0.0136755
0.0230474
0.0296024
0.0329174
0.0329177
0.0296031
0.0230484
0.0136765
0.00238009
-0.00933169
-0.0194283
-0.0257942
-0.0267612
-0.0220406
-0.0128925
-0.00149292
0.00949428
0.0182003
0.0248226
0.0306569
0.0366872
0.0426816
0.0462066
0.0437013
0.0331021
0.0161113
-0.00212609
-0.0165941
-0.0258986
-0.0325362
-0.0415057
-0.0560163
-0.0730286
-0.0849109
-0.0862884
-0.0781235
-0.0649907
-0.0509142
-0.0376736
-0.0244824
-0.00903279
0.00856857
0.0242354
0.0340879
0.0386456
0.0407812
0.0411282
0.03871
0.0340984
0.028947
0.0232705
0.0161839
0.00864036
0.00252008
0.00333234
0.011118
0.0203525
0.0289455
0.0357451
0.0415454
0.0462608
0.0482312
0.0469599
0.043512
0.0371837
0.0250403
0.00683154
-0.0130065
-0.0299857
-0.0441519
-0.0583603
-0.0738727
-0.0887476
-0.0981738
-0.0968083
-0.0837153
-0.065237
-0.0500879
-0.0416472
-0.036019
-0.0269976
-0.0112608
0.00966962
0.0299529
0.0435124
0.0482023
0.0462108
0.041416
0.0364215
0.0312409
0.024428
0.0143689
0.000912285
-0.013618
-0.0257905
-0.0327096
-0.0326008
-0.0255534
-0.0134241
0.0012615
0.0159605
0.0285331
0.037554
0.0422334
0.0422333
0.0375538
0.0285328
0.0159601
0.00126096
-0.0134249
-0.0255546
-0.0326024
-0.0327115
-0.0257925
-0.0136197
0.000911093
0.0143684
0.0244284
0.0312421
0.0364237
0.0414192
0.0462154
0.0482082
0.0435193
0.02996
0.00967611
-0.0112556
-0.026994
-0.0360173
-0.0416478
-0.0500913
-0.0652436
-0.0837248
-0.0968195
-0.098185
-0.0887576
-0.0738808
-0.0583666
-0.0441562
-0.0299876
-0.0130057
0.00683527
0.0250462
0.0371906
0.043519
0.0469666
0.0482372
0.0462657
0.0415488
0.0357474
0.028947
0.0203532
0.011118
0.00333222
0.0042552
0.0137429
0.0243984
0.034096
0.0415454
0.0472828
0.0511543
0.0518026
0.0490064
0.0438539
0.0356389
0.0217575
0.00239865
-0.0178409
-0.0345829
-0.048131
-0.0617488
-0.0772086
-0.0925863
-0.10255
-0.101358
-0.0883078
-0.0703637
-0.0566397
-0.0504435
-0.0472211
-0.0396471
-0.0235418
-0.000501175
0.0229328
0.0397964
0.0473196
0.0474868
0.0442376
0.0403467
0.0358289
0.0290149
0.0181766
0.00325075
-0.013192
-0.0272375
-0.0355264
-0.0359604
-0.0284819
-0.0150695
0.00148945
0.0183469
0.0329292
0.0434825
0.049027
0.0490266
0.0434813
0.0329274
0.0183447
0.00148713
-0.0150717
-0.0284838
-0.035962
-0.0355275
-0.0272381
-0.0131919
0.00325141
0.0181779
0.0290167
0.0358311
0.0403494
0.0442409
0.0474909
0.0473245
0.0398019
0.0229383
-0.000496318
-0.0235381
-0.0396445
-0.0472198
-0.050444
-0.0566425
-0.0703696
-0.0883167
-0.101369
-0.102561
-0.0925959
-0.0772164
-0.061755
-0.0481356
-0.0345856
-0.0178411
0.00240124
0.0217625
0.0356453
0.0438609
0.0490135
0.0518094
0.0511602
0.0472873
0.0415488
0.0340984
0.0243998
0.0137434
0.00425526
0.00530375
0.0165539
0.0283531
0.0387062
0.0462608
0.0511543
0.0531759
0.0515568
0.0465527
0.0392224
0.0289161
0.0137052
-0.00564378
-0.0247447
-0.0397901
-0.0513696
-0.0629162
-0.0766504
-0.0908592
-0.10006
-0.0985696
-0.0861553
-0.0700692
-0.0591632
-0.0562774
-0.0562693
-0.0508869
-0.035168
-0.0107626
0.0152183
0.0350426
0.0452725
0.0475169
0.0456595
0.0426947
0.0388232
0.0323018
0.0213717
0.00602328
-0.0111158
-0.0258802
-0.0346326
-0.0351203
-0.0272548
-0.0131757
0.00411766
0.0216373
0.0366463
0.0474037
0.0530601
0.0530595
0.0474019
0.0366436
0.0216339
0.00411398
-0.0131791
-0.0272575
-0.0351219
-0.0346328
-0.0258791
-0.0111136
0.00602615
0.0213749
0.0323051
0.0388264
0.0426978
0.0456627
0.0475205
0.0452765
0.0350466
0.0152218
-0.0107601
-0.0351665
-0.0508861
-0.056269
-0.0562776
-0.059165
-0.0700733
-0.0861622
-0.0985785
-0.100069
-0.0908676
-0.0766574
-0.0629221
-0.0513745
-0.0397936
-0.0247464
-0.00564303
0.0137083
0.028921
0.0392284
0.0465594
0.0515638
0.0531826
0.0511602
0.0462656
0.03871
0.0283556
0.0165552
0.00530412
0.00614397
0.0186132
0.0308237
0.0411232
0.0482312
0.0518026
0.0515568
0.0474731
0.0403698
0.0311498
0.0191738
0.00336589
-0.014896
-0.0317621
-0.0443374
-0.0534062
-0.0621999
-0.0731745
-0.0849665
-0.0923407
-0.0901271
-0.0787526
-0.0654196
-0.0581591
-0.0590665
-0.0626107
-0.0599849
-0.0456563
-0.0212829
0.00572903
0.0272326
0.0393362
0.0432913
0.0428549
0.0411503
0.0385109
0.03305
0.0229064
0.00806593
-0.00886301
-0.0235432
-0.0320932
-0.03217
-0.0237436
-0.00916916
0.00832999
0.0256908
0.0401942
0.0503446
0.0556367
0.0556362
0.0503429
0.0401916
0.0256874
0.00832621
-0.00917283
-0.0237466
-0.0321716
-0.032093
-0.0235412
-0.00885947
0.00807047
0.0229113
0.0330546
0.0385149
0.0411538
0.0428581
0.0432945
0.0393393
0.0272352
0.00573054
-0.0212829
-0.0456576
-0.0599866
-0.062612
-0.0590671
-0.0581597
-0.0654214
-0.0787566
-0.090133
-0.0923475
-0.0849729
-0.0731802
-0.0622051
-0.0534111
-0.0443417
-0.0317652
-0.0148973
0.0033667
0.0191765
0.0311541
0.0403754
0.0474797
0.0515638
0.0518094
0.0482372
0.0411282
0.0308274
0.0186154
0.0061447
0.00663018
0.0195367
0.0312867
0.0407754
0.0469599
0.0490064
0.0465527
0.0403698
0.0318333
0.0215508
0.00879513
-0.00663703
-0.0228297
-0.0367361
-0.0465961
-0.0532489
-0.0593422
-0.0672933
-0.0761896
-0.0814174
-0.0786527
-0.0689877
-0.0591678
-0.0559588
-0.0606106
-0.0675734
-0.0680369
-0.0562017
-0.0335957
-0.00746067
0.0141904
0.0273633
0.0329941
0.0345333
0.0349338
0.0344283
0.030853
0.0221886
0.00844169
-0.00775113
-0.0218819
-0.0298083
-0.0291054
-0.0198114
-0.00444652
0.0135814
0.03113
0.0454989
0.0553698
0.0604775
0.0604772
0.055369
0.0454975
0.031128
0.013579
-0.00444903
-0.0198136
-0.0291068
-0.0298083
-0.0218801
-0.00774749
0.00844674
0.0221943
0.0308586
0.0344329
0.0349375
0.0345361
0.0329964
0.0273652
0.0141916
-0.00746097
-0.0335979
-0.0562055
-0.0680411
-0.0675767
-0.0606123
-0.055959
-0.0591678
-0.0689887
-0.0786551
-0.081421
-0.0761934
-0.0672972
-0.0593463
-0.0532534
-0.0466006
-0.0367402
-0.0228327
-0.00663827
0.00879576
0.0215531
0.0318373
0.0403754
0.0465594
0.0490135
0.0469666
0.0407812
0.0312912
0.0195396
0.0066312
0.00690559
0.0197764
0.0305035
0.0386392
0.043512
0.0438539
0.0392224
0.0311498
0.0215508
0.0107138
-0.00218048
-0.0164892
-0.0298712
-0.040257
-0.0471442
-0.0513509
-0.0547093
-0.0594141
-0.0651355
-0.0682237
-0.0653841
-0.0581581
-0.0523436
-0.0531076
-0.0609102
-0.0706403
-0.0740945
-0.0655174
-0.0460768
-0.0223053
-0.00154408
0.012341
0.0198468
0.0237946
0.0266115
0.0282787
0.0264361
0.0190644
0.00635018
-0.00897386
-0.0223068
-0.029317
-0.027527
-0.0169959
-0.00024776
0.0192362
0.0381962
0.0538088
0.064618
0.0702353
0.0702353
0.0646181
0.0538089
0.0381962
0.0192361
-0.000248144
-0.0169965
-0.0275275
-0.0293169
-0.0223055
-0.008971
0.00635467
0.01907
0.0264418
0.0282837
0.0266152
0.0237969
0.019848
0.0123413
-0.00154456
-0.0223071
-0.0460804
-0.0655225
-0.0741002
-0.0706451
-0.0609129
-0.053108
-0.0523426
-0.0581569
-0.0653837
-0.0682242
-0.0651367
-0.059416
-0.0547121
-0.0513547
-0.0471486
-0.0402616
-0.0298753
-0.016492
-0.0021816
0.0107144
0.0215531
0.0311541
0.0392284
0.0438609
0.043519
0.0386456
0.0305087
0.01978
0.00690686
0.00681401
0.0189273
0.0279305
0.0340813
0.0371837
0.0356389
0.0289161
0.0191738
0.00879513
-0.00218048
-0.014576
-0.0269716
-0.0367547
-0.042927
-0.0462755
-0.0476054
-0.0478924
-0.0490322
-0.0513938
-0.0525373
-0.0502189
-0.0460461
-0.0443905
-0.0486537
-0.0586983
-0.0702814
-0.0762981
-0.0712449
-0.0556621
-0.0349398
-0.015474
-0.00106224
0.00806987
0.0138184
0.0179421
0.0203314
0.0188237
0.0117334
-0.000413319
-0.0148217
-0.0270028
-0.0326126
-0.0291983
-0.0168003
0.00220341
0.0243273
0.0461041
0.0644273
0.0774068
0.0842116
0.0842119
0.0774077
0.0644287
0.0461059
0.0243292
0.00220512
-0.016799
-0.0291974
-0.0326117
-0.0270016
-0.0148196
-0.000409856
0.011738
0.0188287
0.0203358
0.0179452
0.0138198
0.00806972
-0.00106349
-0.0154761
-0.0349427
-0.055666
-0.0712499
-0.0763035
-0.0702862
-0.0587013
-0.0486544
-0.0443892
-0.0460438
-0.0502165
-0.0525355
-0.0513928
-0.0490324
-0.0478939
-0.0476083
-0.0462796
-0.0429318
-0.0367596
-0.0269757
-0.0145787
-0.0021816
0.00879576
0.0191765
0.028921
0.0356453
0.0371906
0.0340879
0.0279362
0.0189313
0.00681549
0.00574795
0.015301
0.0211135
0.0242294
0.0250403
0.0217575
0.0137052
0.00336589
-0.00663703
-0.0164892
-0.0269716
-0.036107
-0.0412934
-0.04267
-0.0422277
-0.0407392
-0.0383164
-0.0364163
-0.0360387
-0.0359985
-0.03499
-0.0342857
-0.0365115
-0.0433675
-0.0544308
-0.0666641
-0.0743712
-0.0724339
-0.0605887
-0.0429
-0.0248532
-0.0104342
-0.000832634
0.00488602
0.00803437
0.00886111
0.00592203
-0.00185521
-0.0136121
-0.0266778
-0.0369419
-0.0402365
-0.0342153
-0.0189209
0.00342422
0.029261
0.0547891
0.0765705
0.0922284
0.100448
0.100448
0.0922298
0.0765727
0.0547918
0.029264
0.0034272
-0.0189181
-0.0342128
-0.0402344
-0.0369398
-0.0266756
-0.0136094
-0.0018521
0.00592529
0.00886394
0.00803609
0.00488618
-0.000834049
-0.0104368
-0.0248565
-0.0429036
-0.0605927
-0.0724381
-0.0743754
-0.0666677
-0.0544331
-0.043368
-0.0365104
-0.0342832
-0.0349869
-0.0359953
-0.036036
-0.0364145
-0.0383162
-0.0407408
-0.0422309
-0.0426745
-0.0412985
-0.036112
-0.0269757
-0.016492
-0.00663827
0.00336669
0.0137083
0.0217625
0.0250462
0.0242353
0.0211189
0.0153049
0.00574944
0.00350137
0.00837589
0.00943048
0.00856441
0.00683154
0.00239865
-0.00564378
-0.014896
-0.0228297
-0.0298712
-0.0367547
-0.0412934
-0.0412947
-0.0380762
-0.0346075
-0.031498
-0.0279158
-0.0246061
-0.0229085
-0.0227415
-0.02359
-0.0261306
-0.0311867
-0.0390482
-0.0493923
-0.0606055
-0.0685522
-0.0686385
-0.0598129
-0.0448814
-0.0286029
-0.0153337
-0.00718871
-0.00388787
-0.00409807
-0.00676189
-0.0122639
-0.0210049
-0.03197
-0.0428415
-0.0500929
-0.049876
-0.0400501
-0.0207702
0.00578162
0.0358547
0.0652621
0.0903428
0.108404
0.117819
0.117819
0.108405
0.090345
0.0652649
0.0358578
0.00578494
-0.0207668
-0.0400466
-0.0498727
-0.0500898
-0.0428388
-0.0319676
-0.021003
-0.0122626
-0.00676124
-0.00409831
-0.00388918
-0.00719114
-0.0153371
-0.0286068
-0.0448855
-0.0598168
-0.068642
-0.0685551
-0.0606076
-0.0493934
-0.0390483
-0.0311856
-0.0261284
-0.0235869
-0.0227379
-0.0229048
-0.024603
-0.0279138
-0.0314978
-0.0346091
-0.0380795
-0.0412994
-0.0412985
-0.0367596
-0.0298753
-0.0228327
-0.0148973
-0.00564303
0.00240125
0.00683527
0.00856857
0.00943451
0.00837901
0.00350259
0.000688422
-1.69373e-05
-0.00415086
-0.00903426
-0.0130065
-0.0178409
-0.0247447
-0.0317621
-0.0367361
-0.040257
-0.042927
-0.04267
-0.0380762
-0.0315841
-0.0267551
-0.0237828
-0.0207972
-0.0175889
-0.0155446
-0.0155585
-0.0178818
-0.0225481
-0.0287104
-0.0355894
-0.0432668
-0.0516366
-0.0581885
-0.0590546
-0.0525698
-0.0404362
-0.02676
-0.0161659
-0.0113709
-0.0123262
-0.0173293
-0.02437
-0.0327424
-0.0422679
-0.051935
-0.0598737
-0.0632134
-0.0585549
-0.0441249
-0.0203525
0.0105121
0.0445242
0.0772159
0.104901
0.12477
0.135034
0.135034
0.124771
0.104903
0.0772182
0.044527
0.0105152
-0.0203493
-0.0441215
-0.0585515
-0.06321
-0.0598708
-0.0519327
-0.0422666
-0.0327423
-0.024371
-0.0173312
-0.0123288
-0.0113739
-0.0161693
-0.0267636
-0.04044
-0.0525735
-0.0590576
-0.0581907
-0.0516378
-0.043267
-0.0355888
-0.0287091
-0.0225462
-0.0178792
-0.0155553
-0.015541
-0.0175852
-0.020794
-0.0237809
-0.0267548
-0.0315857
-0.0380796
-0.0426745
-0.0429318
-0.0402616
-0.0367402
-0.0317652
-0.0247464
-0.0178411
-0.0130057
-0.00903278
-0.00414903
-1.52698e-05
0.000689129
-0.00199273
-0.00783227
-0.016405
-0.0244811
-0.0299857
-0.0345829
-0.0397901
-0.0443374
-0.0465961
-0.0471442
-0.0462755
-0.0422277
-0.0346075
-0.0267551
-0.0222787
-0.020633
-0.0189142
-0.0159611
-0.0131734
-0.0124974
-0.0151057
-0.0205022
-0.0263201
-0.0308942
-0.034802
-0.0393792
-0.0437426
-0.044956
-0.0409218
-0.0322675
-0.0222684
-0.0154835
-0.0149083
-0.0205549
-0.030394
-0.0416955
-0.0528363
-0.0631039
-0.0714623
-0.0763987
-0.075675
-0.0664676
-0.0475198
-0.0196335
0.0148637
0.0519624
0.0871006
0.116712
0.137944
0.148846
0.148847
0.137945
0.116714
0.0871026
0.0519647
0.0148661
-0.0196311
-0.0475175
-0.0664653
-0.0756727
-0.0763964
-0.0714605
-0.0631029
-0.0528366
-0.0416971
-0.0303967
-0.0205582
-0.0149116
-0.0154865
-0.0222712
-0.0322702
-0.0409244
-0.0449584
-0.0437444
-0.03938
-0.0348018
-0.0308932
-0.0263186
-0.0205003
-0.0151036
-0.0124951
-0.0131708
-0.015958
-0.0189109
-0.02063
-0.0222768
-0.0267548
-0.0346091
-0.0422309
-0.0462796
-0.0471486
-0.0466006
-0.0443417
-0.0397936
-0.0345856
-0.0299876
-0.0244824
-0.0164056
-0.0078323
-0.00199263
-0.00449535
-0.0149482
-0.02718
-0.0376698
-0.0441519
-0.048131
-0.0513696
-0.0534062
-0.0532489
-0.0513509
-0.0476054
-0.0407392
-0.031498
-0.0237828
-0.020633
-0.0204588
-0.0194896
-0.0159279
-0.0114226
-0.00915225
-0.0113378
-0.0170038
-0.0222868
-0.0246385
-0.0250867
-0.0262951
-0.0289594
-0.0311295
-0.0302645
-0.0257542
-0.019769
-0.016558
-0.0193878
-0.0285671
-0.0421063
-0.0569198
-0.0706037
-0.0818255
-0.0893861
-0.0919905
-0.0879723
-0.0751249
-0.0526996
-0.0217917
0.0152953
0.0546269
0.0916348
0.12284
0.145279
0.156779
0.156779
0.14528
0.122841
0.0916364
0.0546286
0.0152968
-0.0217905
-0.0526987
-0.0751244
-0.0879719
-0.09199
-0.0893856
-0.0818252
-0.0706041
-0.0569211
-0.0421087
-0.0285701
-0.0193908
-0.0165604
-0.0197708
-0.0257555
-0.0302656
-0.0311306
-0.0289606
-0.0262959
-0.0250868
-0.0246378
-0.0222855
-0.017002
-0.0113359
-0.00915058
-0.0114209
-0.0159259
-0.0194868
-0.0204556
-0.02063
-0.0237808
-0.0314978
-0.0407408
-0.0476083
-0.0513547
-0.0532534
-0.0534111
-0.0513745
-0.0481356
-0.0441562
-0.0376736
-0.0271829
-0.0149499
-0.00449588
-0.00714569
-0.0223588
-0.0381457
-0.0509082
-0.0583603
-0.0617488
-0.0629162
-0.0621999
-0.0593422
-0.0547093
-0.0478924
-0.0383164
-0.0279158
-0.0207972
-0.0189142
-0.0194896
-0.0182381
-0.0132497
-0.00671344
-0.00304014
-0.00532313
-0.0119452
-0.0174886
-0.0185147
-0.0164954
-0.0153615
-0.0172824
-0.0211305
-0.0237251
-0.0230163
-0.0199668
-0.0186
-0.0228051
-0.0336459
-0.0495226
-0.0671588
-0.0833211
-0.0959129
-0.103493
-0.104952
-0.0991548
-0.0844373
-0.0603352
-0.0279717
0.0105335
0.0513814
0.0899407
0.122642
0.146288
0.158419
0.158419
0.146289
0.122643
0.0899418
0.0513824
0.0105341
-0.0279717
-0.0603359
-0.0844386
-0.0991565
-0.104954
-0.103494
-0.0959139
-0.0833217
-0.0671595
-0.0495238
-0.0336477
-0.0228072
-0.0186018
-0.019968
-0.0230166
-0.0237248
-0.0211303
-0.0172825
-0.015362
-0.0164961
-0.0185149
-0.0174881
-0.0119438
-0.00532131
-0.00303858
-0.00671228
-0.0132485
-0.0182362
-0.0194868
-0.0189109
-0.020794
-0.0279138
-0.0383162
-0.0478939
-0.0547121
-0.0593463
-0.0622051
-0.0629221
-0.061755
-0.0583666
-0.0509142
-0.0381508
-0.0223621
-0.00714681
-0.00996501
-0.030199
-0.0496972
-0.0649827
-0.0738727
-0.0772086
-0.0766504
-0.0731745
-0.0672933
-0.0594141
-0.0490322
-0.0364163
-0.0246061
-0.0175889
-0.0159611
-0.0159279
-0.0132497
-0.00650464
0.00142759
0.00527565
0.0016489
-0.00686076
-0.0133229
-0.0135993
-0.00975331
-0.00696053
-0.00864426
-0.0141396
-0.019396
-0.0209237
-0.0187365
-0.0170209
-0.0207176
-0.0319362
-0.0494938
-0.0697944
-0.0886453
-0.103142
-0.111657
-0.11333
-0.10752
-0.0929667
-0.0692189
-0.0371625
0.00139564
0.0428356
0.082434
0.116387
0.141149
0.153906
0.153906
0.141149
0.116387
0.0824344
0.0428357
0.00139522
-0.0371637
-0.0692209
-0.0929695
-0.107523
-0.113334
-0.111661
-0.103145
-0.0886466
-0.0697948
-0.0494937
-0.0319363
-0.0207182
-0.0170218
-0.0187373
-0.0209237
-0.0193951
-0.0141383
-0.00864315
-0.0069603
-0.00975401
-0.0136004
-0.0133235
-0.00686011
0.00165053
0.00527744
0.00142894
-0.00650365
-0.0132485
-0.0159259
-0.015958
-0.0175852
-0.024603
-0.0364145
-0.0490324
-0.059416
-0.0672972
-0.0731802
-0.0766574
-0.0772164
-0.0738808
-0.0649907
-0.049704
-0.0302035
-0.0099666
-0.0125961
-0.0374741
-0.0603665
-0.0781139
-0.0887476
-0.0925863
-0.0908592
-0.0849665
-0.0761896
-0.0651355
-0.0513938
-0.0360387
-0.0229085
-0.0155446
-0.0131734
-0.0114226
-0.00671344
0.00142759
0.00955729
0.0122184
0.0064437
-0.00399243
-0.011018
-0.0102413
-0.00449024
-2.34523e-05
-0.00114192
-0.00726578
-0.0134638
-0.0151587
-0.0119452
-0.00853906
-0.0110163
-0.0224024
-0.0416735
-0.0647369
-0.0864612
-0.103272
-0.113474
-0.116495
-0.112086
-0.099285
-0.0775344
-0.0473966
-0.0103222
0.0303359
0.0698857
0.104308
0.129704
0.142888
0.142888
0.129704
0.104307
0.0698852
0.030335
-0.0103237
-0.0473989
-0.0775375
-0.0992889
-0.11209
-0.116499
-0.113478
-0.103275
-0.0864633
-0.0647374
-0.0416729
-0.0224011
-0.0110152
-0.00853866
-0.0119453
-0.0151588
-0.013463
-0.00726411
-0.00113987
-2.20117e-05
-0.0044901
-0.0102423
-0.0110192
-0.0039927
0.00644474
0.0122202
0.00955905
0.00142894
-0.00671228
-0.0114209
-0.0131708
-0.015541
-0.0229048
-0.036036
-0.0513928
-0.0651367
-0.0761934
-0.0849729
-0.0908676
-0.0925958
-0.0887576
-0.0781235
-0.0603746
-0.0374795
-0.012598
-0.0143696
-0.0422436
-0.0670933
-0.0862779
-0.0981738
-0.10255
-0.10006
-0.0923407
-0.0814174
-0.0682237
-0.0525373
-0.0359985
-0.0227415
-0.0155585
-0.0124974
-0.00915225
-0.00304014
0.00527565
0.0122184
0.0128857
0.00523548
-0.00597084
-0.0122755
-0.00958884
-0.00148779
0.0051037
0.00547167
0.000285487
-0.00498278
-0.00527201
-0.000233579
0.00488921
0.0032939
-0.00852722
-0.0294344
-0.054858
-0.0790047
-0.0979072
-0.10992
-0.114722
-0.112338
-0.102071
-0.0832828
-0.0562355
-0.0220525
0.0162536
0.0542107
0.0877399
0.112758
0.125848
0.125848
0.112757
0.0877391
0.0542094
0.0162517
-0.0220551
-0.0562389
-0.0832868
-0.102076
-0.112343
-0.114726
-0.109924
-0.0979107
-0.0790071
-0.0548589
-0.0294338
-0.00852545
0.00329605
0.0048909
-0.000232815
-0.00527188
-0.00498248
0.00028668
0.00547378
0.00510592
-0.00148653
-0.009589
-0.0122767
-0.00597183
0.00523555
0.0128869
0.0122202
0.00527744
-0.00303858
-0.00915059
-0.0124951
-0.0155553
-0.0227379
-0.0359953
-0.0525355
-0.0682242
-0.081421
-0.0923475
-0.100069
-0.102561
-0.098185
-0.0862884
-0.067102
-0.0422493
-0.0143716
-0.0145106
-0.042259
-0.0663492
-0.0849005
-0.0968083
-0.101358
-0.0985696
-0.0901271
-0.0786527
-0.0653841
-0.0502189
-0.03499
-0.02359
-0.0178818
-0.0151057
-0.0113378
-0.00532313
0.0016489
0.0064437
0.00523548
-0.00302899
-0.0131868
-0.0172734
-0.0118976
-0.001094
0.00810156
0.0109047
0.00793584
0.00467923
0.00617272
0.0125726
0.0184967
0.0170525
0.00466356
-0.0173365
-0.0441266
-0.0696208
-0.089713
-0.102908
-0.109155
-0.108721
-0.101205
-0.0859138
-0.0627977
-0.0326663
0.00185637
0.0366654
0.0677764
0.0911657
0.103475
0.103475
0.0911651
0.0677752
0.0366634
0.00185363
-0.0326698
-0.0628017
-0.0859181
-0.101209
-0.108726
-0.109159
-0.102911
-0.0897159
-0.0696229
-0.0441277
-0.0173362
0.00466516
0.0170549
0.0184991
0.0125742
0.00617329
0.00467927
0.0079362
0.010906
0.00810351
-0.00109224
-0.0118969
-0.0172739
-0.013188
-0.00302988
0.00523555
0.00644473
0.00165052
-0.00532132
-0.0113359
-0.0151037
-0.0178792
-0.0235869
-0.0349869
-0.0502165
-0.0653837
-0.0786551
-0.090133
-0.0985785
-0.101369
-0.0968195
-0.0849109
-0.0663577
-0.0422645
-0.0145125
-0.0128108
-0.0369391
-0.0572967
-0.0730198
-0.0837153
-0.0883078
-0.0861553
-0.0787526
-0.0689877
-0.0581581
-0.0460461
-0.0342857
-0.0261306
-0.0225481
-0.0205022
-0.0170038
-0.0119452
-0.00686076
-0.00399243
-0.00597084
-0.0131868
-0.0207651
-0.0218534
-0.0138026
-0.00061236
0.0110559
0.0164459
0.0157877
0.0141396
0.0163556
0.0226477
0.0280438
0.0260478
0.0131434
-0.0093099
-0.0365244
-0.0623621
-0.0826674
-0.0961638
-0.103164
-0.104264
-0.0994667
-0.0880543
-0.069577
-0.0444578
-0.0148269
0.0157099
0.0433499
0.0642724
0.0753533
0.0753529
0.0642714
0.0433482
0.0157075
-0.0148299
-0.0444612
-0.0695808
-0.0880583
-0.0994707
-0.104268
-0.103167
-0.0961668
-0.0826697
-0.0623635
-0.0365251
-0.00930966
0.0131445
0.0260497
0.028046
0.0226496
0.0163566
0.0141398
0.0157876
0.0164461
0.0110568
-0.000611026
-0.0138014
-0.0218531
-0.0207658
-0.013188
-0.00597182
-0.0039927
-0.00686011
-0.0119438
-0.017002
-0.0205004
-0.0225462
-0.0261284
-0.0342832
-0.0460438
-0.0581569
-0.0689887
-0.0787566
-0.0861622
-0.0883167
-0.0837248
-0.0730286
-0.0573037
-0.0369436
-0.0128123
-0.0101325
-0.0288233
-0.044015
-0.0560102
-0.065237
-0.0703637
-0.0700692
-0.0654196
-0.0591678
-0.0523436
-0.0443905
-0.0365115
-0.0311867
-0.0287104
-0.0263201
-0.0222868
-0.0174886
-0.0133229
-0.011018
-0.0122755
-0.0172734
-0.0218534
-0.0203781
-0.0106441
0.00385328
0.0170496
0.0240906
0.0245199
0.0228415
0.0239208
0.0284338
0.0321995
0.0292287
0.0159198
-0.00659293
-0.0337389
-0.0594052
-0.0793686
-0.0926007
-0.0998322
-0.102079
-0.0998474
-0.0924433
-0.0789718
-0.0593995
-0.0352135
-0.00935838
0.0145901
0.0329879
0.0428722
0.0428717
0.0329866
0.0145882
-0.00936075
-0.0352161
-0.0594023
-0.0789749
-0.0924466
-0.0998508
-0.102083
-0.0998352
-0.0926031
-0.0793704
-0.0594061
-0.0337392
-0.00659256
0.0159206
0.0292299
0.032201
0.0284353
0.0239219
0.022842
0.0245199
0.0240903
0.0170494
0.0038536
-0.0106433
-0.0203773
-0.0218531
-0.0172739
-0.0122767
-0.0110192
-0.0133234
-0.0174881
-0.0222855
-0.0263186
-0.0287091
-0.0311856
-0.0365104
-0.0443892
-0.0523426
-0.0591677
-0.0654214
-0.0700733
-0.0703696
-0.0652436
-0.0560163
-0.0440198
-0.0288263
-0.0101335
-0.00775728
-0.0216589
-0.0324298
-0.0415026
-0.0500879
-0.0566397
-0.0591632
-0.0581591
-0.0559588
-0.0531076
-0.0486537
-0.0433675
-0.0390482
-0.0355894
-0.0308942
-0.0246385
-0.0185147
-0.0135993
-0.0102413
-0.00958884
-0.0118976
-0.0138026
-0.0106441
-0.00034662
0.0143117
0.0278517
0.0352038
0.0351949
0.0319017
0.0304418
0.0321657
0.0337368
0.0295509
0.0158145
-0.00665935
-0.033578
-0.0589167
-0.0784217
-0.0913313
-0.098752
-0.10206
-0.102213
-0.0985364
-0.0897367
-0.0753707
-0.0562532
-0.0346264
-0.0138741
0.00244856
0.0114207
0.0114203
0.00244757
-0.0138756
-0.0346282
-0.0562551
-0.0753728
-0.089739
-0.0985387
-0.102215
-0.102063
-0.0987543
-0.0913333
-0.0784233
-0.0589176
-0.0335781
-0.00665888
0.0158153
0.0295518
0.0337376
0.0321664
0.0304425
0.0319023
0.0351952
0.0352037
0.0278511
0.0143112
-0.00034653
-0.0106433
-0.0138014
-0.0118969
-0.009589
-0.0102423
-0.0136004
-0.0185149
-0.0246378
-0.0308932
-0.0355888
-0.0390483
-0.043368
-0.0486544
-0.053108
-0.055959
-0.0581597
-0.059165
-0.0566425
-0.0500913
-0.0415057
-0.0324323
-0.0216604
-0.00775778
-0.00619005
-0.016934
-0.0249092
-0.0325356
-0.0416472
-0.0504435
-0.0562774
-0.0590665
-0.0606106
-0.0609102
-0.0586983
-0.0544308
-0.0493923
-0.0432668
-0.034802
-0.0250867
-0.0164954
-0.00975331
-0.00449024
-0.00148779
-0.001094
-0.00061236
0.00385328
0.0143117
0.0286363
0.0418644
0.0487739
0.0477001
0.0424254
0.0382968
0.0372182
0.0365508
0.0310079
0.016712
-0.00575116
-0.0323423
-0.0572232
-0.0762467
-0.0889468
-0.0967106
-0.101115
-0.103372
-0.102719
-0.0974985
-0.0869783
-0.0714996
-0.0528374
-0.0343439
-0.0195199
-0.011199
-0.0111991
-0.0195202
-0.0343445
-0.0528384
-0.0715008
-0.0869797
-0.0974999
-0.10272
-0.103373
-0.101116
-0.096712
-0.0889483
-0.0762481
-0.0572242
-0.0323426
-0.00575069
0.016713
0.0310089
0.0365515
0.0372185
0.0382969
0.0424258
0.0477006
0.0487743
0.0418642
0.0286356
0.0143112
0.0038536
-0.000611034
-0.00109224
-0.00148653
-0.0044901
-0.00975401
-0.0164961
-0.0250868
-0.0348018
-0.043267
-0.0493934
-0.0544331
-0.0587012
-0.0609129
-0.0606123
-0.0590671
-0.0562776
-0.050444
-0.0416478
-0.0325362
-0.0249095
-0.0169343
-0.00619013
-0.00489311
-0.0130927
-0.019006
-0.0259003
-0.036019
-0.0472211
-0.0562693
-0.0626107
-0.0675734
-0.0706403
-0.0702814
-0.0666641
-0.0606055
-0.0516366
-0.0393792
-0.0262951
-0.0153615
-0.00696053
-2.34523e-05
0.0051037
0.00810156
0.0110559
0.0170496
0.0278517
0.0418644
0.0546859
0.0611527
0.0593526
0.0527106
0.0465315
0.0430375
0.0401943
0.0331468
0.018151
-0.00431607
-0.030446
-0.0546907
-0.0731269
-0.0855298
-0.093461
-0.0985904
-0.102218
-0.103396
-0.100143
-0.0915527
-0.0777564
-0.0603718
-0.0428917
-0.028803
-0.0208011
-0.020801
-0.0288028
-0.0428915
-0.0603718
-0.0777567
-0.0915531
-0.100144
-0.103397
-0.102218
-0.0985908
-0.0934616
-0.0855307
-0.0731281
-0.0546918
-0.0304465
-0.00431576
0.018152
0.0331481
0.0401953
0.0430378
0.0465315
0.0527106
0.059353
0.0611534
0.0546863
0.0418642
0.0278511
0.0170494
0.0110568
0.0081035
0.00510592
-2.20123e-05
-0.0069603
-0.015362
-0.0262958
-0.03938
-0.0516378
-0.0606076
-0.0666677
-0.0702862
-0.0706451
-0.0675767
-0.062612
-0.0562689
-0.0472198
-0.0360173
-0.0258986
-0.0190046
-0.0130918
-0.00489285
-0.00308118
-0.00783101
-0.0110127
-0.0165977
-0.0269976
-0.0396471
-0.0508869
-0.0599849
-0.0680369
-0.0740945
-0.0762981
-0.0743712
-0.0685522
-0.0581885
-0.0437426
-0.0289594
-0.0172824
-0.00864426
-0.00114192
0.00547167
0.0109047
0.0164459
0.0240906
0.0352038
0.0487739
0.0611527
0.0674379
0.0655029
0.0581436
0.0503032
0.0444244
0.0392109
0.0305289
0.0149287
-0.00726589
-0.0325834
-0.0558929
-0.0735057
-0.0852322
-0.0926466
-0.0974558
-0.101027
-0.102343
-0.0992667
-0.0908059
-0.0769758
-0.0593138
-0.0414895
-0.0271022
-0.0188737
-0.0188736
-0.027102
-0.041489
-0.0593132
-0.0769751
-0.0908051
-0.0992661
-0.102343
-0.101026
-0.0974556
-0.0926466
-0.0852325
-0.0735062
-0.0558936
-0.032584
-0.00726588
0.0149294
0.0305302
0.0392122
0.0444253
0.0503034
0.0581435
0.065503
0.0674384
0.0611534
0.0487743
0.0352037
0.0240903
0.0164461
0.010906
0.00547377
-0.00113987
-0.00864316
-0.0172825
-0.0289605
-0.0437444
-0.0581907
-0.0685551
-0.0743754
-0.0763035
-0.0741002
-0.0680411
-0.0599866
-0.0508861
-0.0396445
-0.026994
-0.0165941
-0.0110098
-0.00782924
-0.00308061
-0.000407277
-0.000109853
0.000812127
-0.00213151
-0.0112608
-0.0235418
-0.035168
-0.0456563
-0.0562017
-0.0655174
-0.0712449
-0.0724339
-0.0686385
-0.0590546
-0.044956
-0.0311295
-0.0211305
-0.0141396
-0.00726578
0.000285487
0.00793584
0.0157877
0.0245199
0.0351949
0.0477001
0.0593526
0.0655029
0.0635492
0.0553461
0.0453636
0.0364375
0.0283315
0.0179309
0.0020631
-0.0193276
-0.0432938
-0.0652232
-0.081598
-0.092053
-0.0980305
-0.101236
-0.103156
-0.10293
-0.0984736
-0.0887806
-0.0737424