/*--------------------------------*- C++ -*----------------------------------*\
  =========                 |
  \\      /  F ield         | OpenFOAM: The Open Source CFD Toolbox
   \\    /   O peration     | Website:  https://openfoam.org
    \\  /    A nd           | Version:  10
     \\/     M anipulation  |
\*---------------------------------------------------------------------------*/
FoamFile
{
    format      ascii;
    class       volScalarField;
    location    "57";
    object      h_0;
}
// * * * * * * * * * * * * * * * * * * * * * * * * * * * * * * * * * * * * * //

dimensions      [0 1 0 0 0 0 0];

internalField   nonuniform List<scalar> 
10000
(
0.000158232
0.000702652
0.0015811
0.0024872
0.00329064
0.00420508
0.00525759
0.0061144
0.00661967
0.00691129
0.00683749
0.00579283
0.00356598
0.000769702
-0.00189588
-0.00439123
-0.0070558
-0.00990755
-0.0125681
-0.0143549
-0.0145012
-0.0128139
-0.0101589
-0.0078133
-0.00626932
-0.00497506
-0.00314294
-0.000439571
0.0028513
0.00583034
0.00757427
0.00774608
0.00667539
0.00501119
0.00326731
0.00164614
0.000167329
-0.0012773
-0.00271578
-0.00391773
-0.00461301
-0.00463057
-0.00392188
-0.0026396
-0.00107652
0.000470379
0.00176387
0.00270662
0.00329182
0.00355194
0.00355208
0.00329218
0.00270711
0.00176435
0.000470732
-0.00107637
-0.00263967
-0.00392215
-0.00463101
-0.00461358
-0.0039184
-0.00271651
-0.00127802
0.000166718
0.00164579
0.00326734
0.00501168
0.00667634
0.00774738
0.00757572
0.00583173
0.00285247
-0.000438699
-0.00314237
-0.00497479
-0.00626939
-0.00781379
-0.0101599
-0.0128154
-0.0145031
-0.0143569
-0.01257
-0.00990914
-0.00705692
-0.00439176
-0.00189579
0.000770403
0.00356719
0.00579432
0.00683895
0.00691256
0.00662069
0.00611513
0.00525797
0.00420514
0.00329053
0.00248702
0.00158088
0.000702428
0.000158127
0.000702652
0.00274059
0.0056734
0.0085748
0.0110311
0.0136328
0.0164539
0.0185576
0.0195309
0.0198108
0.0190053
0.015433
0.00855766
0.000207091
-0.00756804
-0.0146668
-0.0221214
-0.0300569
-0.0374177
-0.0422251
-0.0422557
-0.0369723
-0.028926
-0.0218497
-0.0171933
-0.0133586
-0.00803479
-0.000222828
0.00926782
0.0178544
0.0229014
0.0234842
0.0205997
0.0161239
0.0114862
0.00715971
0.00307057
-0.00117941
-0.00567968
-0.00969781
-0.0123212
-0.0129135
-0.0112228
-0.00763268
-0.00299767
0.00176781
0.00589794
0.00901479
0.0110166
0.0119417
0.0119421
0.0110176
0.00901609
0.00589924
0.00176878
-0.00299725
-0.00763289
-0.0112235
-0.0129148
-0.0123228
-0.00969962
-0.00568157
-0.0011812
0.00306914
0.00715897
0.0114864
0.0161254
0.0206025
0.023488
0.0229056
0.0178586
0.00927135
-0.000220162
-0.00803304
-0.0133578
-0.0171935
-0.0218512
-0.028929
-0.0369768
-0.0422612
-0.0422309
-0.0374231
-0.0300614
-0.0221247
-0.0146685
-0.00756804
0.000208776
0.00856079
0.015437
0.0190093
0.0198143
0.0195338
0.0185598
0.0164552
0.0136333
0.0110311
0.0085746
0.00567303
0.00274014
0.000702424
0.0015811
0.0056734
0.0110269
0.0161365
0.0202804
0.0242935
0.0282624
0.0307962
0.0313272
0.0305937
0.0280732
0.0213231
0.00970199
-0.00382611
-0.0160275
-0.0267833
-0.0378218
-0.0495216
-0.0603209
-0.0671022
-0.0663785
-0.0573829
-0.0442146
-0.0327738
-0.0253643
-0.01947
-0.0113724
0.00060505
0.0152337
0.0285311
0.036467
0.0377095
0.0338955
0.0279146
0.0218297
0.0160857
0.010235
0.00345496
-0.00439996
-0.0120179
-0.0176454
-0.0199364
-0.0182156
-0.0129192
-0.00538041
0.00284747
0.0103705
0.0163347
0.0203442
0.0222892
0.0222897
0.0203454
0.0163363
0.0103721
0.0028487
-0.0053799
-0.0129195
-0.0182168
-0.0199384
-0.0176478
-0.0120204
-0.00440237
0.0034529
0.0102335
0.0160852
0.0218306
0.0279171
0.0338997
0.0377151
0.0364735
0.0285375
0.0152394
0.000609434
-0.0113695
-0.0194687
-0.0253647
-0.0327763
-0.0442195
-0.05739
-0.066387
-0.067111
-0.060329
-0.0495283
-0.0378268
-0.0267862
-0.0160281
-0.00382423
0.00970606
0.0213285
0.0280789
0.0305989
0.0313317
0.0307999
0.0282649
0.0242948
0.0202811
0.0161368
0.0110268
0.00567303
0.00158088
0.0024872
0.0085748
0.0161365
0.0232413
0.028892
0.0340057
0.0386361
0.041132
0.0408659
0.0387847
0.0342808
0.0244979
0.00889728
-0.00864369
-0.0240302
-0.0371986
-0.0505282
-0.0647828
-0.0780663
-0.0862863
-0.0849245
-0.0731131
-0.0562546
-0.041943
-0.0331277
-0.0265068
-0.017068
-0.00240159
0.0159918
0.0330539
0.0436677
0.0461768
0.0426832
0.036756
0.0307906
0.0249798
0.0183279
0.00955392
-0.00150331
-0.0129449
-0.0220959
-0.026777
-0.0257511
-0.0193349
-0.00920142
0.00252447
0.0138067
0.0231576
0.0296937
0.0329908
0.0329911
0.0296945
0.0231586
0.0138078
0.00252523
-0.00920128
-0.0193356
-0.0257526
-0.0267792
-0.0220985
-0.0129475
-0.00150551
0.00955236
0.0183271
0.0249801
0.0307921
0.0367591
0.042688
0.0461832
0.0436752
0.0330615
0.0159986
-0.00239621
-0.0170644
-0.0265052
-0.0331284
-0.0419463
-0.0562608
-0.0731219
-0.084935
-0.0862969
-0.0780758
-0.0647907
-0.0505342
-0.0372023
-0.0240314
-0.00864214
0.00890149
0.0245039
0.0342874
0.0387911
0.0408717
0.041137
0.0386398
0.0340081
0.0288934
0.0232422
0.0161368
0.00857459
0.00248702
0.00329064
0.0110311
0.0202804
0.028892
0.0356654
0.041432
0.0461799
0.048249
0.0470789
0.043699
0.0374312
0.025359
0.00721631
-0.0125596
-0.0294728
-0.0436189
-0.0579286
-0.0736339
-0.0886651
-0.0981382
-0.0967769
-0.0837559
-0.0654549
-0.0505414
-0.042284
-0.036677
-0.0275018
-0.0115402
0.00956078
0.0299082
0.0434585
0.0481263
0.0461497
0.0414176
0.0364909
0.0313352
0.0244889
0.0143561
0.000827955
-0.0137349
-0.0258875
-0.0327365
-0.0325388
-0.0254208
-0.0132524
0.00143061
0.0160845
0.0285987
0.0375679
0.0422106
0.0422106
0.0375676
0.0285983
0.016084
0.00143005
-0.0132533
-0.025422
-0.0325404
-0.0327384
-0.0258895
-0.0137367
0.00082679
0.0143557
0.0244893
0.0313364
0.0364931
0.0414209
0.0461543
0.0481322
0.0434654
0.0299153
0.00956727
-0.011535
-0.0274983
-0.0366755
-0.0422847
-0.0505449
-0.0654615
-0.0837655
-0.0967881
-0.0981494
-0.088675
-0.073642
-0.0579348
-0.0436231
-0.0294747
-0.0125587
0.00722009
0.0253649
0.0374381
0.043706
0.0470856
0.048255
0.0461846
0.0414354
0.0356677
0.0288934
0.0202811
0.0110311
0.00329052
0.00420508
0.0136328
0.0242935
0.0340057
0.041432
0.0471469
0.0510679
0.0518346
0.0491584
0.0440883
0.0359397
0.0221266
0.00282935
-0.0173503
-0.0340308
-0.0475699
-0.061302
-0.0769608
-0.0924914
-0.102491
-0.10129
-0.0883033
-0.0705428
-0.0570699
-0.0510678
-0.0478649
-0.0401273
-0.0237909
-0.000585764
0.0228889
0.0397073
0.0471744
0.047334
0.0441368
0.0403122
0.0358211
0.0289773
0.018074
0.00309308
-0.0133545
-0.0273428
-0.035525
-0.0358426
-0.0282812
-0.0148385
0.00169184
0.0184698
0.032957
0.0434282
0.0489206
0.0489202
0.0434269
0.0329551
0.0184676
0.0016895
-0.0148407
-0.0282832
-0.0358442
-0.0355261
-0.0273434
-0.0133544
0.00309376
0.0180753
0.0289791
0.0358234
0.0403149
0.04414
0.0473381
0.0471793
0.0397128
0.0228944
-0.000580902
-0.0237871
-0.0401248
-0.0478638
-0.0510684
-0.0570728
-0.0705487
-0.0883122
-0.101301
-0.102502
-0.0925009
-0.0769686
-0.0613081
-0.0475744
-0.0340334
-0.0173504
0.00283199
0.0221316
0.0359462
0.0440953
0.0491655
0.0518413
0.0510737
0.0471514
0.0414354
0.0340081
0.0242949
0.0136333
0.00420513
0.00525759
0.0164539
0.0282624
0.0386361
0.0461799
0.0510679
0.0531514
0.051655
0.0467705
0.0395189
0.0292668
0.014102
-0.00520675
-0.0242641
-0.0392662
-0.0508593
-0.0625346
-0.0764654
-0.0908143
-0.100035
-0.0985154
-0.0861403
-0.070219
-0.0595516
-0.056849
-0.0568517
-0.0513048
-0.0353648
-0.0108143
0.0151784
0.0349224
0.0450656
0.0472828
0.0454672
0.0425685
0.0387304
0.0321924
0.0212191
0.00584532
-0.0112618
-0.0259288
-0.0345426
-0.0348951
-0.0269419
-0.0128443
0.00439851
0.0218162
0.0367085
0.0473673
0.0529652
0.0529646
0.0473655
0.0367057
0.0218127
0.00439481
-0.0128477
-0.0269446
-0.0348967
-0.0345428
-0.0259277
-0.0112596
0.0058482
0.0212223
0.0321957
0.0387336
0.0425716
0.0454705
0.0472865
0.0450696
0.0349264
0.0151819
-0.0108118
-0.0353633
-0.051304
-0.0568514
-0.0568494
-0.0595533
-0.0702231
-0.0861472
-0.0985243
-0.100045
-0.0908227
-0.0764724
-0.0625405
-0.0508641
-0.0392697
-0.0242657
-0.00520596
0.0141052
0.0292717
0.039525
0.0467772
0.051662
0.0531581
0.0510737
0.0461846
0.0386398
0.0282649
0.0164552
0.00525795
0.0061144
0.0185576
0.0307962
0.041132
0.048249
0.0518346
0.051655
0.0476795
0.0406718
0.031505
0.019551
0.00374934
-0.0145082
-0.0313574
-0.0439145
-0.0530206
-0.0619474
-0.0730962
-0.0849948
-0.0923595
-0.0900839
-0.078709
-0.0655036
-0.0584539
-0.0595279
-0.0630817
-0.0603094
-0.0457899
-0.0213031
0.00569044
0.0270838
0.0390765
0.0429884
0.0425845
0.0409457
0.0383485
0.032888
0.0227253
0.00788553
-0.00898544
-0.0235442
-0.0319402
-0.0318743
-0.0233564
-0.00876542
0.0086794
0.0259384
0.040325
0.0503766
0.0556127
0.0556122
0.050375
0.0403225
0.025935
0.00867563
-0.00876907
-0.0233593
-0.0318759
-0.0319401
-0.0235422
-0.0089819
0.00789008
0.0227301
0.0328926
0.0383526
0.0409492
0.0425877
0.0429916
0.0390795
0.0270864
0.00569192
-0.0213031
-0.0457911
-0.0603111
-0.0630831
-0.0595285
-0.0584546
-0.0655055
-0.078713
-0.0900898
-0.0923663
-0.0850013
-0.0731019
-0.0619526
-0.0530254
-0.0439187
-0.0313604
-0.0145095
0.00375019
0.0195538
0.0315093
0.0406774
0.047686
0.051662
0.0518413
0.048255
0.041137
0.0307999
0.0185598
0.00611512
0.00661967
0.0195309
0.0313272
0.0408659
0.0470789
0.0491584
0.0467705
0.0406718
0.0321977
0.0219377
0.00917127
-0.00629303
-0.022515
-0.0364283
-0.0462913
-0.0529969
-0.0592117
-0.0672937
-0.0762454
-0.0814242
-0.0785633
-0.0688588
-0.0591302
-0.0561079
-0.0609205
-0.0679103
-0.0682665
-0.0562866
-0.0336054
-0.0075165
0.0140003
0.0270408
0.0326105
0.0341682
0.0346292
0.034171
0.0306083
0.0219388
0.00820235
-0.00792828
-0.0219355
-0.0297077
-0.0288574
-0.019458
-0.00405831
0.0139361
0.0314059
0.0456754
0.0554581
0.0605171
0.0605168
0.0554573
0.045674
0.0314039
0.0139337
-0.00406079
-0.0194602
-0.0288587
-0.0297077
-0.0219337
-0.00792465
0.0082074
0.0219445
0.0306138
0.0341757
0.0346329
0.0341711
0.0326128
0.0270427
0.0140014
-0.00751683
-0.0336076
-0.0562904
-0.0682707
-0.0679137
-0.0609222
-0.0561081
-0.0591301
-0.0688598
-0.0785658
-0.0814278
-0.0762492
-0.0672976
-0.0592158
-0.0530014
-0.0462958
-0.0364324
-0.0225179
-0.00629424
0.00917194
0.0219401
0.0322017
0.0406774
0.0467772
0.0491655
0.0470856
0.0408717
0.0313317
0.0195338
0.00662068
0.00691129
0.0198108
0.0305937
0.0387847
0.043699
0.0440883
0.0395189
0.031505
0.0219377
0.0111019
-0.00182083
-0.0161827
-0.029613
-0.0400204
-0.0469255
-0.0511937
-0.0546538
-0.0594406
-0.0651679
-0.0681798
-0.0652297
-0.0579456
-0.0522008
-0.0531359
-0.0610978
-0.0708743
-0.0742583
-0.0655744
-0.0460837
-0.022371
-0.0017562
0.0119793
0.0194033
0.023348
0.0262104
0.0279197
0.02609
0.018713
0.00600377
-0.00926745
-0.022483
-0.0293377
-0.027386
-0.0167206
9.7975e-05
0.0195845
0.0384992
0.0540362
0.064771
0.0703477
0.0703477
0.0647711
0.0540364
0.0384993
0.0195844
9.76283e-05
-0.0167212
-0.0273865
-0.0293376
-0.0224817
-0.00926459
0.00600825
0.0187185
0.0260957
0.0279246
0.0262141
0.0233502
0.0194044
0.0119797
-0.0017567
-0.0223728
-0.0460873
-0.0655795
-0.074264
-0.0708791
-0.0611005
-0.0531363
-0.0521997
-0.0579443
-0.0652292
-0.0681803
-0.0651691
-0.0594426
-0.0546567
-0.0511975
-0.04693
-0.040025
-0.0296171
-0.0161854
-0.00182192
0.0111025
0.0219401
0.0315093
0.039525
0.0440953
0.043706
0.0387911
0.030599
0.0198144
0.00691256
0.00683749
0.0190053
0.0280732
0.0342808
0.0374312
0.0359397
0.0292668
0.019551
0.00917127
-0.00182083
-0.0142524
-0.0267086
-0.0365479
-0.04275
-0.0461268
-0.0475208
-0.0478852
-0.0490614
-0.0513929
-0.0524554
-0.0500396
-0.0458139
-0.0442167
-0.0486302
-0.0588162
-0.0704419
-0.0763982
-0.0712482
-0.0556156
-0.0349456
-0.0156259
-0.00137736
0.00764647
0.0133586
0.0174961
0.0199033
0.0183909
0.0112813
-0.000871201
-0.0152322
-0.0272907
-0.0327281
-0.0291241
-0.0165555
0.00255553
0.0247142
0.0464725
0.0647382
0.0776536
0.0844238
0.0844242
0.0776545
0.0647397
0.0464744
0.0247162
0.00255728
-0.0165542
-0.0291231
-0.0327273
-0.0272895
-0.01523
-0.000867744
0.0112858
0.0183959
0.0199077
0.0174991
0.0133599
0.00764628
-0.00137865
-0.0156279
-0.0349485
-0.0556195
-0.0712532
-0.0764037
-0.0704467
-0.0588192
-0.0486309
-0.0442153
-0.0458115
-0.0500372
-0.0524536
-0.0513919
-0.0490616
-0.0478868
-0.0475238
-0.046131
-0.0427549
-0.0365527
-0.0267126
-0.0142551
-0.00182192
0.00917194
0.0195538
0.0292717
0.0359462
0.0374381
0.0342874
0.0280789
0.0190093
0.00683896
0.00579283
0.015433
0.0213231
0.0244979
0.025359
0.0221266
0.014102
0.00374934
-0.00629303
-0.0161827
-0.0267086
-0.0359082
-0.0411562
-0.0425704
-0.0421634
-0.0407325
-0.0383543
-0.0364451
-0.0360124
-0.0359035
-0.0348287
-0.0340885
-0.0363585
-0.0433258
-0.0544868
-0.0667333
-0.0743682
-0.0723274
-0.0604222
-0.0427726
-0.0248673
-0.0106257
-0.00116619
0.00446861
0.00757942
0.00837995
0.00540324
-0.00241275
-0.0141793
-0.0271872
-0.0373058
-0.0403966
-0.0341522
-0.018657
0.00381889
0.0297059
0.0552256
0.0769553
0.092552
0.100739
0.100739
0.0925534
0.0769575
0.0552283
0.0297089
0.00382191
-0.0186542
-0.0341498
-0.0403944
-0.0373037
-0.027185
-0.0141767
-0.00240965
0.00540649
0.00838276
0.0075811
0.00446872
-0.00116766
-0.0106284
-0.0248706
-0.0427763
-0.0604261
-0.0723315
-0.0743724
-0.0667369
-0.0544891
-0.0433264
-0.0363573
-0.034086
-0.0348255
-0.0359003
-0.0360097
-0.0364434
-0.0383542
-0.0407341
-0.0421666
-0.0425749
-0.0411614
-0.0359132
-0.0267126
-0.0161854
-0.00629424
0.00375018
0.0141052
0.0221316
0.0253649
0.0245039
0.0213285
0.015437
0.00579433
0.00356598
0.00855766
0.00970199
0.00889728
0.00721631
0.00282935
-0.00520675
-0.0145082
-0.022515
-0.029613
-0.0365479
-0.0411562
-0.041229
-0.0380618
-0.0346377
-0.0315747
-0.0279997
-0.0246388
-0.0228702
-0.0226549
-0.0234712
-0.0259889
-0.0310613
-0.0389762
-0.0493592
-0.0605522
-0.0684204
-0.0684071
-0.0595219
-0.0446229
-0.0284815
-0.0154026
-0.00743562
-0.00427241
-0.00457973
-0.00731926
-0.01289
-0.0216793
-0.032643
-0.0434328
-0.0505098
-0.0500603
-0.0399884
-0.0204933
0.00619633
0.0363203
0.0657162
0.0907406
0.108736
0.118116
0.118117
0.108737
0.0907428
0.065719
0.0363234
0.00619967
-0.0204898
-0.039985
-0.0500569
-0.0505067
-0.0434301
-0.0326407
-0.0216774
-0.0128887
-0.00731862
-0.00457999
-0.00427376
-0.00743809
-0.015406
-0.0284854
-0.044627
-0.0595258
-0.0684106
-0.0684233
-0.0605543
-0.0493604
-0.0389762
-0.0310602
-0.0259867
-0.0234681
-0.0226513
-0.0228665
-0.0246356
-0.0279978
-0.0315744
-0.0346394
-0.0380652
-0.0412336
-0.0411614
-0.0365527
-0.0296171
-0.0225179
-0.0145095
-0.00520596
0.00283199
0.00722009
0.00890148
0.00970606
0.0085608
0.0035672
0.000769702
0.000207091
-0.00382611
-0.00864369
-0.0125596
-0.0173503
-0.0242641
-0.0313574
-0.0364283
-0.0400204
-0.04275
-0.0425704
-0.0380618
-0.0316405
-0.0268688
-0.0239314
-0.0209192
-0.0176291
-0.0155124
-0.0155051
-0.0178265
-0.0224727
-0.0286109
-0.0354778
-0.0431408
-0.0514762
-0.0579689
-0.0587616
-0.0522304
-0.0401236
-0.0265714
-0.0161679
-0.0115755
-0.0127115
-0.017858
-0.0250055
-0.0334553
-0.0430174
-0.0526589
-0.0604916
-0.0636415
-0.0587431
-0.0440671
-0.0200837
0.0109145
0.0449734
0.0776475
0.10527
0.125068
0.135292
0.135293
0.125069
0.105272
0.0776499
0.0449761
0.0109176
-0.0200805
-0.0440638
-0.0587397
-0.0636381
-0.0604887
-0.0526567
-0.0430162
-0.0334552
-0.0250066
-0.0178599
-0.0127141
-0.0115785
-0.0161713
-0.0265751
-0.0401274
-0.052234
-0.0587647
-0.057971
-0.0514774
-0.0431409
-0.0354772
-0.0286097
-0.0224708
-0.0178239
-0.0155019
-0.0155087
-0.0176254
-0.020916
-0.0239295
-0.0268686
-0.0316421
-0.0380652
-0.0425749
-0.0427549
-0.040025
-0.0364324
-0.0313604
-0.0242657
-0.0173504
-0.0125587
-0.00864214
-0.00382423
0.000208792
0.00077042
-0.00189588
-0.00756804
-0.0160275
-0.0240302
-0.0294728
-0.0340308
-0.0392662
-0.0439145
-0.0462913
-0.0469255
-0.0461268
-0.0421634
-0.0346377
-0.0268688
-0.0224545
-0.0208259
-0.0190484
-0.0159947
-0.013146
-0.0124801
-0.0151116
-0.0204847
-0.026238
-0.0307448
-0.0346061
-0.0391615
-0.0435072
-0.044684
-0.0406134
-0.0319675
-0.0220609
-0.0154472
-0.01508
-0.0209285
-0.0309318
-0.0423436
-0.0535467
-0.0638267
-0.0721383
-0.0769623
-0.0760619
-0.0666373
-0.0474682
-0.0193921
0.0152264
0.0523669
0.0874849
0.117033
0.138193
0.149055
0.149055
0.138194
0.117035
0.0874869
0.0523692
0.0152288
-0.0193898
-0.0474659
-0.0666349
-0.0760595
-0.0769601
-0.0721365
-0.0638257
-0.053547
-0.0423453
-0.0309345
-0.0209317
-0.0150832
-0.0154502
-0.0220637
-0.0319701
-0.040616
-0.0446864
-0.0435089
-0.0391623
-0.0346059
-0.0307438
-0.0262365
-0.0204829
-0.0151095
-0.0124778
-0.0131433
-0.0159916
-0.0190451
-0.020823
-0.0224527
-0.0268686
-0.0346394
-0.0421666
-0.046131
-0.04693
-0.0462958
-0.0439187
-0.0392697
-0.0340334
-0.0294746
-0.0240314
-0.0160281
-0.00756802
-0.00189577
-0.00439123
-0.0146668
-0.0267833
-0.0371986
-0.0436189
-0.0475699
-0.0508593
-0.0530206
-0.0529969
-0.0511937
-0.0475208
-0.0407325
-0.0315747
-0.0239314
-0.0208259
-0.020635
-0.0195702
-0.0158941
-0.0113454
-0.00911687
-0.0113481
-0.016992
-0.0221877
-0.0244453
-0.0248461
-0.0260683
-0.0287652
-0.0309297
-0.0300244
-0.0254893
-0.0195529
-0.0164817
-0.0195103
-0.0288933
-0.0425953
-0.0575048
-0.0712288
-0.0824465
-0.0899593
-0.0924715
-0.0883159
-0.0752956
-0.0526893
-0.0216238
0.0155661
0.0549329
0.0919199
0.123066
0.14544
0.156902
0.156902
0.14544
0.123067
0.0919215
0.0549346
0.0155676
-0.0216226
-0.0526885
-0.0752951
-0.0883155
-0.092471
-0.0899588
-0.0824462
-0.0712292
-0.0575061
-0.0425976
-0.0288963
-0.0195133
-0.0164842
-0.0195546
-0.0254906
-0.0300255
-0.0309309
-0.0287663
-0.0260691
-0.0248461
-0.0244446
-0.0221863
-0.0169902
-0.0113462
-0.0091152
-0.0113438
-0.015892
-0.0195674
-0.0206319
-0.020823
-0.0239295
-0.0315744
-0.0407341
-0.0475238
-0.0511975
-0.0530014
-0.0530255
-0.0508641
-0.0475744
-0.0436231
-0.0372024
-0.0267862
-0.0146685
-0.00439174
-0.0070558
-0.0221214
-0.0378218
-0.0505282
-0.0579286
-0.061302
-0.0625346
-0.0619474
-0.0592117
-0.0546538
-0.0478852
-0.0383543
-0.0279997
-0.0209192
-0.0190484
-0.0195702
-0.0181934
-0.0130881
-0.0065342
-0.00293648
-0.00529084
-0.011905
-0.017363
-0.0182966
-0.0162485
-0.0151669
-0.0171586
-0.0210149
-0.0235512
-0.0227785
-0.019733
-0.0184721
-0.0228583
-0.0338914
-0.0499179
-0.0676325
-0.0838198
-0.0964066
-0.103957
-0.105359
-0.0994746
-0.0846345
-0.060395
-0.027909
0.0106775
0.051551
0.0900859
0.122732
0.146318
0.158414
0.158414
0.146319
0.122733
0.090087
0.0515519
0.010678
-0.027909
-0.0603957
-0.0846358
-0.0994763
-0.105361
-0.103958
-0.0964076
-0.0838205
-0.0676333
-0.0499191
-0.0338931
-0.0228603
-0.0184739
-0.0197341
-0.0227788
-0.023551
-0.0210146
-0.0171588
-0.0151675
-0.0162491
-0.0182969
-0.0173624
-0.0119036
-0.00528904
-0.00293492
-0.00653303
-0.0130868
-0.0181915
-0.0195674
-0.0190451
-0.020916
-0.0279978
-0.0383542
-0.0478868
-0.0546567
-0.0592158
-0.0619526
-0.0625405
-0.0613081
-0.0579348
-0.0505342
-0.0378268
-0.0221247
-0.0070569
-0.00990755
-0.0300569
-0.0495216
-0.0647828
-0.0736339
-0.0769608
-0.0764654
-0.0730962
-0.0672937
-0.0594406
-0.0490614
-0.0364451
-0.0246388
-0.0176291
-0.0159947
-0.0158941
-0.0130881
-0.00624551
0.00166796
0.00540557
0.00168262
-0.00683578
-0.0132201
-0.0134068
-0.00953909
-0.00681267
-0.00857741
-0.0140747
-0.0192482
-0.0206763
-0.0184543
-0.0168132
-0.0206705
-0.0320669
-0.0497623
-0.0701304
-0.0889998
-0.103497
-0.111999
-0.113646
-0.107791
-0.0931599
-0.0693157
-0.0371722
0.00144327
0.0428949
0.0824592
0.116352
0.141053
0.153772
0.153773
0.141053
0.116352
0.0824595
0.042895
0.00144283
-0.0371733
-0.0693176
-0.0931628
-0.107794
-0.11365
-0.112002
-0.103499
-0.0890011
-0.0701308
-0.0497623
-0.032067
-0.020671
-0.0168141
-0.0184551
-0.0206763
-0.0192473
-0.0140734
-0.00857632
-0.00681245
-0.00953979
-0.0134079
-0.0132206
-0.00683513
0.00168424
0.00540735
0.00166931
-0.0062445
-0.0130868
-0.015892
-0.0159916
-0.0176254
-0.0246356
-0.0364434
-0.0490616
-0.0594426
-0.0672976
-0.0731019
-0.0764724
-0.0769686
-0.073642
-0.0647907
-0.0495283
-0.0300614
-0.00990912
-0.0125681
-0.0374177
-0.0603209
-0.0780663
-0.0886651
-0.0924914
-0.0908143
-0.0849948
-0.0762454
-0.0651679
-0.0513929
-0.0360124
-0.0228702
-0.0155124
-0.013146
-0.0113454
-0.0065342
0.00166796
0.00973973
0.0122626
0.00637797
-0.00406959
-0.0110071
-0.0101186
-0.00432066
9.97937e-05
-0.00108482
-0.0071961
-0.0132917
-0.0148614
-0.0115829
-0.00822436
-0.0108444
-0.0223997
-0.0418059
-0.0649342
-0.0866719
-0.103478
-0.113667
-0.116673
-0.112244
-0.0993993
-0.0775897
-0.0474019
-0.0102994
0.0303492
0.0698467
0.104196
0.129523
0.142662
0.142662
0.129523
0.104195
0.0698462
0.0303483
-0.010301
-0.0474042
-0.0775929
-0.0994032
-0.112249
-0.116677
-0.113672
-0.103481
-0.086674
-0.0649348
-0.0418052
-0.0223984
-0.0108434
-0.00822394
-0.011583
-0.0148614
-0.0132909
-0.00719441
-0.00108277
0.000101223
-0.00432053
-0.0101196
-0.0110083
-0.00406987
0.006379
0.0122644
0.00974148
0.00166931
-0.00653303
-0.0113438
-0.0131433
-0.0155087
-0.0228665
-0.0360097
-0.0513919
-0.0651691
-0.0762492
-0.0850013
-0.0908227
-0.0925009
-0.088675
-0.0780758
-0.060329
-0.0374231
-0.01257
-0.0143549
-0.0422251
-0.0671022
-0.0862863
-0.0981382
-0.102491
-0.100035
-0.0923595
-0.0814242
-0.0681798
-0.0524554
-0.0359035
-0.0226549
-0.0155051
-0.0124801
-0.00911687
-0.00293648
0.00540557
0.0122626
0.0127804
0.00502386
-0.00617755
-0.0123637
-0.00952289
-0.00133315
0.00524113
0.00555529
0.000381188
-0.00478539
-0.00494185
0.000178606
0.00527063
0.00354026
-0.00845222
-0.0294998
-0.0549882
-0.0791364
-0.0980142
-0.109995
-0.114773
-0.112377
-0.102089
-0.0832726
-0.0562112
-0.0220331
0.0162359
0.0541169
0.0875567
0.112496
0.125536
0.125536
0.112496
0.0875559
0.0541156
0.0162339
-0.0220358
-0.0562147
-0.0832766
-0.102093
-0.112382
-0.114778
-0.109999
-0.0980177
-0.0791387
-0.0549892
-0.0294992
-0.00845043
0.00354242
0.00527231
0.000179373
-0.00494172
-0.00478507
0.000382401
0.00555741
0.00524335
-0.00133189
-0.00952307
-0.0123648
-0.00617855
0.00502393
0.0127816
0.0122644
0.00540734
-0.00293492
-0.00911521
-0.0124778
-0.0155019
-0.0226513
-0.0359003
-0.0524536
-0.0681803
-0.0814278
-0.0923663
-0.100045
-0.102502
-0.0981494
-0.0862969
-0.067111
-0.0422309
-0.0143569
-0.0145012
-0.0422557
-0.0663785
-0.0849245
-0.0967769
-0.10129
-0.0985154
-0.0900839
-0.0785633
-0.0652297
-0.0500396
-0.0348287
-0.0234712
-0.0178265
-0.0151116
-0.0113481
-0.00529084
0.00168262
0.00637797
0.00502386
-0.00333044
-0.0134577
-0.0173926
-0.0118279
-0.000912123
0.00826987
0.0110038
0.00801955
0.00484188
0.00645894
0.0129432
0.0188395
0.0172564
0.00468784
-0.0174552
-0.0443006
-0.0697716
-0.0898069
-0.102942
-0.10915
-0.108705
-0.10118
-0.0858829
-0.0627797
-0.0326801
0.00178175
0.0364941
0.0675022
0.0908057
0.103059
0.103059
0.0908051
0.067501
0.0364921
0.00177899
-0.0326836
-0.0627837
-0.0858872
-0.101184
-0.108709
-0.109154
-0.102945
-0.0898099
-0.0697738
-0.0443017
-0.0174549
0.00468945
0.0172588
0.0188419
0.0129448
0.0064595
0.00484191
0.00801993
0.011005
0.00827183
-0.000910348
-0.0118272
-0.0173932
-0.0134589
-0.00333133
0.00502393
0.006379
0.00168424
-0.00528905
-0.0113462
-0.0151095
-0.0178239
-0.0234681
-0.0348255
-0.0500372
-0.0652292
-0.0785658
-0.0900898
-0.0985243
-0.101301
-0.096788
-0.084935
-0.066387
-0.0422612
-0.0145031
-0.0128139
-0.0369723
-0.0573829
-0.0731131
-0.0837559
-0.0883033
-0.0861403
-0.078709
-0.0688588
-0.0579456
-0.0458139
-0.0340885
-0.0259889
-0.0224727
-0.0204847
-0.016992
-0.011905
-0.00683578
-0.00406959
-0.00617755
-0.0134577
-0.0209802
-0.0218977
-0.013651
-0.000360448
0.0112659
0.0165488
0.0158348
0.0142342
0.0165553
0.022922
0.0282817
0.0261364
0.013046
-0.00954396
-0.0367943
-0.0625783
-0.0827942
-0.0962082
-0.10316
-0.104253
-0.0994598
-0.0880569
-0.0696067
-0.0445302
-0.0149678
0.0154652
0.0429966
0.063829
0.0748511
0.0748508
0.0638279
0.0429948
0.0154628
-0.0149708
-0.0445337
-0.0696105
-0.0880609
-0.0994637
-0.104257
-0.103163
-0.0962111
-0.0827964
-0.0625798
-0.036795
-0.00954374
0.0130472
0.0261383
0.0282839
0.0229239
0.0165563
0.0142344
0.0158346
0.016549
0.0112668
-0.000359095
-0.0136499
-0.0218974
-0.0209809
-0.0134589
-0.00617854
-0.00406986
-0.00683513
-0.0119036
-0.0169902
-0.0204829
-0.0224708
-0.0259867
-0.034086
-0.0458115
-0.0579443
-0.0688598
-0.078713
-0.0861472
-0.0883122
-0.0837654
-0.0731219
-0.05739
-0.0369768
-0.0128154
-0.0101589
-0.028926
-0.0442146
-0.0562546
-0.0654549
-0.0705428
-0.070219
-0.0655036
-0.0591302
-0.0522008
-0.0442167
-0.0363585
-0.0310613
-0.0286109
-0.026238
-0.0221877
-0.017363
-0.0132201
-0.0110071
-0.0123637
-0.0173926
-0.0218977
-0.0202532
-0.0103451
0.0042153
0.0173286
0.024225
0.0245639
0.0229047
0.0240672
0.0286378
0.0323543
0.0292252
0.0157293
-0.00690971
-0.0340743
-0.0596658
-0.0795203
-0.0926604
-0.0998448
-0.102094
-0.0998802
-0.0924965
-0.0790552
-0.0595202
-0.0353911
-0.00962797
0.0142205
0.0325331
0.0423597
0.0423593
0.0325318
0.0142186
-0.00963032
-0.0353937
-0.059523
-0.0790582
-0.0924997
-0.0998836
-0.102097
-0.0998477
-0.0926628
-0.0795221
-0.0596667
-0.0340745
-0.00690935
0.0157301
0.0292264
0.0323558
0.0286392
0.0240683
0.0229052
0.0245638
0.0242247
0.0173284
0.00421565
-0.0103443
-0.0202524
-0.0218974
-0.0173932
-0.0123648
-0.0110083
-0.0132206
-0.0173624
-0.0221863
-0.0262365
-0.0286097
-0.0310602
-0.0363573
-0.0442153
-0.0521997
-0.0591301
-0.0655055
-0.0702231
-0.0705487
-0.0654615
-0.0562608
-0.0442195
-0.028929
-0.0101599
-0.0078133
-0.0218497
-0.0327738
-0.041943
-0.0505414
-0.0570699
-0.0595516
-0.0584539
-0.0561079
-0.0531359
-0.0486302
-0.0433258
-0.0389762
-0.0354778
-0.0307448
-0.0244453
-0.0182966
-0.0134068
-0.0101186
-0.00952289
-0.0118279
-0.013651
-0.0103451
8.87198e-05
0.014772
0.0282037
0.0353967
0.0352819
0.031988
0.0305895
0.032354
0.0338693
0.029527
0.0156117
-0.006978
-0.0339091
-0.0591699
-0.0785649
-0.0913853
-0.0987646
-0.102082
-0.102259
-0.0986048
-0.0898284
-0.0754834
-0.0563983
-0.0348354
-0.0141564
0.00210204
0.0110275
0.0110272
0.00210105
-0.0141579
-0.0348372
-0.0564003
-0.0754855
-0.0898306
-0.0986071
-0.102262
-0.102084
-0.0987669
-0.0913873
-0.0785664
-0.0591708
-0.0339092
-0.00697754
0.0156125
0.0295278
0.03387
0.0323547
0.0305902
0.0319886
0.0352822
0.0353966
0.0282031
0.0147715
8.88359e-05
-0.0103443
-0.0136499
-0.0118272
-0.00952306
-0.0101196
-0.0134079
-0.0182969
-0.0244446
-0.0307438
-0.0354772
-0.0389762
-0.0433264
-0.0486309
-0.0531363
-0.0561081
-0.0584546
-0.0595533
-0.0570728
-0.0505449
-0.0419463
-0.0327763
-0.0218512
-0.0078138
-0.00626932
-0.0171933
-0.0253643
-0.0331277
-0.042284
-0.0510678
-0.056849
-0.0595279
-0.0609205
-0.0610978
-0.0588162
-0.0544868
-0.0493592
-0.0431408
-0.0346061
-0.0248461
-0.0162485
-0.00953909
-0.00432066
-0.00133315
-0.000912123
-0.000360448
0.0042153
0.014772
0.0291021
0.0422265
0.0489893
0.0478104
0.0425206
0.038434
0.0373861
0.0366693
0.0309877
0.0165314
-0.00603614
-0.0326397
-0.0574485
-0.0763684
-0.0889846
-0.0967083
-0.101118
-0.103393
-0.102749
-0.097532
-0.0870061
-0.0715259
-0.0528889
-0.0344296
-0.0196368
-0.0113438
-0.0113439
-0.0196371
-0.0344302
-0.0528898
-0.0715271
-0.0870075
-0.0975334
-0.10275
-0.103395
-0.10112
-0.0967097
-0.0889861
-0.0763698
-0.0574495
-0.03264
-0.00603569
0.0165324
0.0309887
0.03667
0.0373864
0.0384342
0.042521
0.047811
0.0489896
0.0422263
0.0291014
0.0147715
0.00421564
-0.000359103
-0.000910354
-0.00133189
-0.00432053
-0.00953979
-0.0162491
-0.0248461
-0.0346059
-0.0431409
-0.0493604
-0.0544891
-0.0588192
-0.0611005
-0.0609222
-0.0595285
-0.0568494
-0.0510684
-0.0422847
-0.0331284
-0.0253648
-0.0171935
-0.0062694
-0.00497506
-0.0133586
-0.01947
-0.0265068
-0.036677
-0.0478649
-0.0568517
-0.0630817
-0.0679103
-0.0708743
-0.0704419
-0.0667333
-0.0605522
-0.0514762
-0.0391615
-0.0260683
-0.0151669
-0.00681267
9.97937e-05
0.00524113
0.00826987
0.0112659
0.0173286
0.0282037
0.0422265
0.0549712
0.0613154
0.059413
0.0527403
0.0465876
0.043123
0.040247
0.0330859
0.0179502
-0.00461116
-0.0307531
-0.0549279
-0.0732607
-0.085577
-0.0934624
-0.0985868
-0.102217
-0.103382
-0.100102
-0.0914685
-0.0776287
-0.0602261
-0.0427408
-0.028653
-0.0206626
-0.0206625
-0.0286528
-0.0427406
-0.0602261
-0.077629
-0.0914689
-0.100103
-0.103383
-0.102218
-0.0985871
-0.093463
-0.085578
-0.0732619
-0.054929
-0.0307537
-0.00461085
0.0179512
0.0330872
0.040248
0.0431233
0.0465875
0.0527403
0.0594134
0.0613161
0.0549716
0.0422263
0.0282031
0.0173284
0.0112667
0.00827183
0.00524335
0.000101222
-0.00681245
-0.0151675
-0.0260691
-0.0391623
-0.0514774
-0.0605543
-0.0667369
-0.0704466
-0.0708791
-0.0679137
-0.063083
-0.0568514
-0.0478638
-0.0366755
-0.0265052
-0.0194687
-0.0133578
-0.00497481
-0.00314294
-0.00803479
-0.0113724
-0.017068
-0.0275018
-0.0401273
-0.0513048
-0.0603094
-0.0682665
-0.0742583
-0.0763982
-0.0743682
-0.0684204
-0.0579689
-0.0435072
-0.0287652
-0.0171586
-0.00857741
-0.00108482
0.00555529
0.0110038
0.0165488
0.024225
0.0353967
0.0489893
0.0613154
0.0674901
0.0654411
0.0580264
0.0501948
0.0443454
0.0391143
0.0303401
0.014615
-0.007667
-0.0329944
-0.0562299
-0.0737304
-0.0853584
-0.0927148
-0.0975053
-0.101064
-0.102347
-0.099212
-0.0906687
-0.0767523
-0.0590316
-0.0411704
-0.0267644
-0.0185383
-0.0185382
-0.0267641
-0.04117
-0.059031
-0.0767516
-0.0906679
-0.0992113
-0.102346
-0.101064
-0.0975051
-0.0927148
-0.0853587
-0.0737309
-0.0562306
-0.0329949
-0.00766699
0.0146157
0.0303413
0.0391156
0.0443463
0.0501951
0.0580263
0.0654412
0.0674906
0.0613161
0.0489896
0.0353966
0.0242247
0.016549
0.011005
0.00555741
-0.00108277
-0.00857632
-0.0171588
-0.0287663
-0.0435089
-0.057971
-0.0684233
-0.0743724
-0.0764037
-0.074264
-0.0682707
-0.0603111
-0.051304
-0.0401248
-0.0274983
-0.0170644
-0.0113695
-0.00803306
-0.00314238
-0.000439571
-0.000222828
0.00060505
-0.00240159
-0.0115402
-0.0237909
-0.0353648
-0.0457899
-0.0562866
-0.0655744
-0.0712482
-0.0723274
-0.0684071
-0.0587616
-0.044684
-0.0309297
-0.0210149
-0.0140747
-0.0071961
0.000381188
0.00801955
0.0158348
0.0245639
0.0352819
0.0478104
0.059413
0.0654411
0.0633422
0.0550464
0.0450483
0.0361452
0.0280301
0.0175535
0.00157404
-0.0198961
-0.0438672
-0.0657168
-0.0819686
-0.0923122
-0.0982188
-0.101391
-0.103285
-0.10301
-0.098474
-0.0886716
-0.0735183