/*--------------------------------*- C++ -*----------------------------------*\
  =========                 |
  \\      /  F ield         | OpenFOAM: The Open Source CFD Toolbox
   \\    /   O peration     | Website:  https://openfoam.org
    \\  /    A nd           | Version:  10
     \\/     M anipulation  |
\*---------------------------------------------------------------------------*/
FoamFile
{
    format      ascii;
    class       volScalarField;
    location    "5";
    object      h;
}
// * * * * * * * * * * * * * * * * * * * * * * * * * * * * * * * * * * * * * //

dimensions      [0 1 0 0 0 0 0];

internalField   nonuniform List<scalar> 
10000
(
5.75962e-75
2.1165e-73
7.33461e-72
2.46207e-70
8.00013e-69
2.5145e-67
7.63899e-66
2.24134e-64
6.34614e-63
1.73246e-61
4.55594e-60
1.15302e-58
2.80549e-57
6.55589e-56
1.46969e-54
3.15704e-53
6.49018e-52
1.27522e-50
2.39144e-49
4.27402e-48
7.26825e-47
1.17411e-45
1.79841e-44
2.60694e-43
3.56889e-42
4.60386e-41
5.58275e-40
6.34702e-39
6.74603e-38
6.68237e-37
6.14803e-36
5.23404e-35
4.10617e-34
2.95494e-33
1.94072e-32
1.15668e-31
6.21661e-31
2.99159e-30
1.27886e-29
4.81406e-29
1.58059e-28
4.48116e-28
1.08639e-27
2.23458e-27
3.8882e-27
5.76043e-27
7.41283e-27
8.55763e-27
9.18523e-27
9.43938e-27
9.43911e-27
9.1843e-27
8.55578e-27
7.40995e-27
5.75682e-27
3.88459e-27
2.2317e-27
1.08453e-27
4.47136e-28
1.57629e-28
4.79815e-29
1.27382e-29
2.97773e-30
6.18319e-31
1.14954e-31
1.92709e-32
2.93151e-33
4.06968e-34
5.18222e-35
6.08061e-36
6.60159e-37
6.65653e-38
6.25498e-39
5.49459e-40
4.52497e-41
3.50273e-42
2.55481e-43
1.75972e-44
1.14701e-45
7.08866e-47
4.16121e-48
2.32416e-49
1.23705e-50
6.28385e-52
3.05063e-53
1.41725e-54
6.3087e-56
2.69386e-57
1.10467e-58
4.35489e-60
1.6521e-61
6.0371e-63
2.12689e-64
7.23038e-66
2.37376e-67
7.53206e-69
2.31164e-70
6.86706e-72
1.97586e-73
5.36124e-75
2.1165e-73
7.71338e-72
2.64997e-70
8.81731e-69
2.83946e-67
8.84347e-66
2.66176e-64
7.73619e-63
2.16939e-61
5.8644e-60
1.52682e-58
3.82484e-57
9.21006e-56
2.12949e-54
4.72245e-53
1.00329e-51
2.03942e-50
3.96129e-49
7.34191e-48
1.29651e-46
2.17794e-45
3.47444e-44
5.2542e-43
7.51739e-42
1.01545e-40
1.29214e-39
1.54512e-38
1.73169e-37
1.81383e-36
1.77003e-35
1.60378e-34
1.34419e-33
1.03785e-32
7.34819e-32
4.74683e-31
2.78199e-30
1.46998e-29
6.95392e-29
2.92239e-28
1.08173e-27
3.49424e-27
9.75598e-27
2.33289e-26
4.74395e-26
8.18621e-26
1.2071e-25
1.55107e-25
1.79143e-25
1.92476e-25
1.97937e-25
1.97932e-25
1.92457e-25
1.79106e-25
1.5505e-25
1.20639e-25
8.17906e-26
4.7382e-26
2.32914e-26
9.73598e-27
3.48534e-27
1.07838e-27
2.91159e-28
6.92369e-29
1.46255e-29
2.76584e-30
4.71545e-31
7.29331e-32
1.02915e-32
1.33163e-33
1.58717e-34
1.7498e-35
1.79105e-36
1.70791e-37
1.52199e-38
1.27114e-39
9.97587e-41
7.37462e-42
5.14677e-43
3.39816e-44
2.12672e-45
1.26392e-46
7.14506e-48
3.84823e-49
1.97756e-50
9.71007e-52
4.56155e-53
2.05277e-54
8.85973e-56
3.67144e-57
1.46235e-58
5.60399e-60
2.06822e-61
7.35768e-63
2.52528e-64
8.36883e-66
2.68009e-67
8.30033e-69
2.48781e-70
7.22117e-72
1.97586e-73
7.33461e-72
2.64997e-70
9.02193e-69
2.9743e-67
9.48856e-66
2.92704e-64
8.72445e-63
2.51062e-61
6.96935e-60
1.86463e-58
4.80379e-57
1.19055e-55
2.83556e-54
6.48332e-53
1.42146e-51
2.98492e-50
5.99582e-49
1.15054e-47
2.10612e-46
3.67231e-45
6.08942e-44
9.58638e-43
1.43016e-41
2.01798e-40
2.68745e-39
3.37035e-38
3.97066e-37
4.38283e-36
4.51965e-35
4.34065e-34
3.86921e-33
3.18917e-32
2.42065e-31
1.68424e-30
1.06883e-29
6.15202e-29
3.19177e-28
1.48237e-27
6.1162e-27
2.22326e-26
7.05682e-26
1.93809e-25
4.56651e-25
9.17307e-25
1.56892e-24
2.3018e-24
2.95292e-24
3.41206e-24
3.66995e-24
3.77687e-24
3.77677e-24
3.6696e-24
3.41138e-24
2.95188e-24
2.30052e-24
1.56763e-24
9.16268e-25
4.55967e-25
1.93438e-25
7.04006e-26
2.21684e-26
6.09509e-27
1.47634e-27
3.17668e-28
6.11857e-29
1.06221e-29
1.67243e-30
2.40158e-31
3.16114e-32
3.83145e-33
4.29388e-34
4.4661e-35
4.32597e-36
3.91448e-37
3.31852e-38
2.64267e-39
1.98165e-40
1.40243e-41
9.38664e-43
5.95341e-44
3.58458e-45
2.05242e-46
1.11929e-47
5.82266e-49
2.89343e-50
1.37529e-51
6.26053e-53
2.73263e-54
1.14496e-55
4.61002e-57
1.7855e-58
6.65855e-60
2.39311e-61
8.29635e-63
2.77663e-64
8.97846e-66
2.80719e-67
8.49267e-69
2.48781e-70
6.86705e-72
2.46207e-70
8.81731e-69
2.9743e-67
9.71372e-66
3.06932e-64
9.37636e-63
2.76711e-61
7.88259e-60
2.16569e-58
5.73354e-57
1.46133e-55
3.58222e-54
8.43702e-53
1.90718e-51
4.13302e-50
8.57628e-49
1.7019e-47
3.22548e-46
5.82989e-45
1.00341e-43
1.64191e-42
2.54993e-41
3.75163e-40
5.21883e-39
6.8497e-38
8.46308e-37
9.81931e-36
1.06703e-34
1.08284e-33
1.02303e-32
8.96715e-32
7.26506e-31
5.41817e-30
3.70275e-29
2.30715e-28
1.30346e-27
6.63624e-27
3.02415e-26
1.22434e-25
4.3682e-25
1.36172e-24
3.67711e-24
8.53403e-24
1.69301e-23
2.86958e-23
4.18839e-23
5.36402e-23
6.20068e-23
6.67661e-23
6.87636e-23
6.87618e-23
6.676e-23
6.1995e-23
5.36224e-23
4.18619e-23
2.86737e-23
1.69122e-23
8.52213e-24
3.67056e-24
1.35871e-24
4.35645e-25
1.2204e-25
3.01268e-26
6.60695e-27
1.29683e-27
2.29376e-28
3.67841e-29
5.37813e-30
7.20507e-31
8.88487e-32
1.01265e-32
1.07075e-33
1.05398e-34
9.68815e-36
8.34011e-37
6.74177e-38
5.12993e-39
3.68273e-40
2.49956e-41
1.60712e-42
9.80653e-44
5.68868e-45
3.1422e-46
1.65515e-47
8.32609e-49
4.00519e-50
1.84474e-51
8.14506e-53
3.45139e-54
1.40508e-55
5.50122e-57
2.07343e-58
7.52999e-60
2.63729e-61
8.91548e-63
2.91142e-64
9.19123e-66
2.80719e-67
8.30033e-69
2.31164e-70
8.00013e-69
2.83946e-67
9.48856e-66
3.06932e-64
9.60423e-63
2.90494e-61
8.48651e-60
2.39269e-58
6.50487e-57
1.70373e-55
4.29505e-54
1.04115e-52
2.42434e-51
5.41669e-50
1.15995e-48
2.37788e-47
4.66046e-46
8.72109e-45
1.55595e-43
2.64266e-42
4.26587e-41
6.53348e-40
9.47655e-39
1.29918e-37
1.67987e-36
2.04402e-35
2.33466e-34
2.49653e-33
2.49213e-32
2.31504e-31
1.99441e-30
1.58747e-29
1.16265e-28
7.79969e-28
4.76899e-27
2.64306e-26
1.31972e-25
5.89738e-25
2.34138e-24
8.19441e-24
2.5075e-23
6.65452e-23
1.5207e-22
2.97862e-22
5.00234e-22
7.26297e-22
9.28502e-22
1.07374e-21
1.15743e-21
1.19299e-21
1.19295e-21
1.15732e-21
1.07355e-21
9.2821e-22
7.25939e-22
4.99876e-22
2.97569e-22
1.51873e-22
6.64353e-23
2.50235e-23
8.17393e-24
2.33437e-24
5.87657e-25
1.3143e-25
2.63052e-26
4.74313e-27
7.75175e-28
1.1546e-28
1.57518e-29
1.97723e-30
2.29297e-31
2.46596e-32
2.46777e-33
2.30527e-34
2.016e-35
1.65488e-36
1.27826e-37
9.31191e-39
6.41132e-40
4.18024e-41
2.58584e-42
1.52019e-43
8.50733e-45
4.53885e-46
2.31194e-47
1.12583e-48
5.24791e-50
2.34445e-51
1.00492e-52
4.13744e-54
1.63789e-55
6.24045e-57
2.29051e-58
8.10621e-60
2.76849e-61
9.13187e-63
2.91142e-64
8.97846e-66
2.68009e-67
7.53205e-69
2.5145e-67
8.84347e-66
2.92704e-64
9.37636e-63
2.90494e-61
8.69784e-60
2.51488e-58
7.01618e-57
1.88707e-55
4.88867e-54
1.21871e-52
2.92071e-51
6.72209e-50
1.48414e-48
3.13976e-47
6.35692e-46
1.23017e-44
2.27229e-43
4.00049e-42
6.70272e-41
1.06701e-39
1.61106e-38
2.3029e-37
3.11023e-36
3.96042e-35
4.74375e-34
5.33163e-33
5.60784e-32
5.50386e-31
5.02467e-30
4.25231e-29
3.32345e-28
2.38901e-27
1.57235e-26
9.42828e-26
5.12271e-25
2.50698e-24
1.09785e-23
4.27167e-23
1.46564e-22
4.39993e-22
1.14702e-21
2.57997e-21
4.98809e-21
8.29885e-21
1.19845e-20
1.52923e-20
1.76905e-20
1.90904e-20
1.96927e-20
1.96922e-20
1.90888e-20
1.76875e-20
1.52878e-20
1.19789e-20
8.29331e-21
4.98353e-21
2.57687e-21
1.14527e-21
4.39156e-22
1.46224e-22
4.25981e-23
1.09426e-23
2.4974e-24
5.10009e-25
9.38063e-26
1.56333e-26
2.37355e-27
3.29937e-28
4.21799e-29
4.97974e-30
5.44957e-31
5.5471e-32
5.26846e-33
4.68248e-34
3.90485e-35
3.06297e-36
2.26511e-37
1.58259e-38
1.04675e-39
6.56627e-41
3.91339e-42
2.21948e-43
1.19971e-44
6.18956e-46
3.05201e-47
1.44017e-48
6.51139e-50
2.82398e-51
1.17612e-52
4.70866e-54
1.81395e-55
6.73042e-57
2.40735e-58
8.30784e-60
2.76849e-61
8.91548e-63
2.77663e-64
8.36883e-66
2.37375e-67
7.63899e-66
2.66176e-64
8.72445e-63
2.76711e-61
8.48651e-60
2.51488e-58
7.19531e-57
1.98594e-55
5.28316e-54
1.35344e-52
3.33572e-51
7.90158e-50
1.79704e-48
3.91961e-47
8.18965e-46
1.63717e-44
3.12727e-43
5.70014e-42
9.89972e-41
1.63571e-39
2.56701e-38
3.81962e-37
5.37867e-36
7.15356e-35
8.96665e-34
1.0568e-32
1.16825e-31
1.20805e-30
1.16515e-29
1.04483e-28
8.68137e-28
6.65851e-27
4.69494e-26
3.02966e-25
1.78046e-24
9.4776e-24
4.54288e-23
1.94825e-22
7.42416e-22
2.49563e-21
7.34585e-21
1.88018e-20
4.16088e-20
7.93837e-20
1.30816e-19
1.87874e-19
2.39258e-19
2.76863e-19
2.99103e-19
3.08792e-19
3.08784e-19
2.99078e-19
2.76817e-19
2.39191e-19
1.87793e-19
1.30735e-19
7.93165e-20
4.15626e-20
1.87752e-20
7.33294e-21
2.49029e-21
7.4051e-22
1.94234e-22
4.52677e-23
9.43872e-24
1.77209e-24
3.01347e-25
4.66661e-26
6.61345e-27
8.61585e-28
1.03608e-28
1.15437e-29
1.19577e-30
1.15525e-31
1.04397e-32
8.84821e-34
7.05113e-35
5.29542e-36
3.75588e-37
2.52095e-38
1.60423e-39
9.69575e-41
5.57469e-42
3.0539e-43
1.5963e-44
7.97246e-46
3.80938e-47
1.74353e-48
7.65282e-50
3.22485e-51
1.30601e-52
5.08824e-54
1.90889e-55
6.90208e-57
2.40735e-58
8.10621e-60
2.63729e-61
8.29635e-63
2.52528e-64
7.23036e-66
2.24134e-64
7.73619e-63
2.51062e-61
7.88259e-60
2.39269e-58
7.01618e-57
1.98594e-55
5.42155e-54
1.42624e-52
3.61225e-51
8.79964e-50
2.05976e-48
4.6278e-47
9.96914e-46
2.05663e-44
4.05822e-43
7.64941e-42
1.37541e-40
2.35566e-39
3.83703e-38
5.93414e-37
8.69835e-36
1.20618e-34
1.5791e-33
1.94754e-32
2.25756e-31
2.45344e-30
2.493e-29
2.36162e-28
2.07903e-27
1.69503e-26
1.27504e-25
8.81307e-25
5.57233e-24
3.20723e-23
1.67143e-22
7.8413e-22
3.29085e-21
1.22729e-20
4.03915e-20
1.16499e-19
2.92604e-19
6.36838e-19
1.1986e-18
1.956e-18
2.7933e-18
3.54991e-18
4.10889e-18
4.44387e-18
4.59167e-18
4.59156e-18
4.44352e-18
4.10825e-18
3.54898e-18
2.79217e-18
1.95487e-18
1.19767e-18
6.36186e-19
2.92223e-19
1.16311e-19
4.03118e-20
1.22439e-20
3.28163e-21
7.81557e-22
1.66508e-22
3.19324e-23
5.54465e-24
8.76358e-25
1.267e-25
1.68309e-26
2.06276e-27
2.34119e-28
2.46926e-29
2.42782e-30
2.23181e-31
1.92337e-32
1.55782e-33
1.1886e-34
8.56154e-36
5.8337e-37
3.76729e-38
2.3098e-39
1.34679e-40
7.47957e-42
3.96228e-43
2.00495e-44
9.70328e-46
4.49704e-47
1.99819e-48
8.5218e-50
3.49194e-51
1.3762e-52
5.22139e-54
1.90889e-55
6.73042e-57
2.29051e-58
7.52999e-60
2.39311e-61
7.35768e-63
2.12688e-64
6.34614e-63
2.16939e-61
6.96935e-60
2.16569e-58
6.50487e-57
1.88707e-55
5.28316e-54
1.42624e-52
3.70939e-51
9.28589e-50
2.23531e-48
5.16895e-47
1.14699e-45
2.43959e-44
4.96781e-43
9.67302e-42
1.79861e-40
3.18919e-39
5.38461e-38
8.64322e-37
1.3168e-35
1.90069e-34
2.59434e-33
3.34182e-32
4.05354e-31
4.61916e-30
4.93259e-29
4.92254e-28
4.57751e-27
3.95376e-26
3.16106e-25
2.33056e-24
1.57804e-23
9.76936e-23
5.50296e-22
2.80554e-21
1.28721e-20
5.28248e-20
1.92657e-19
6.20324e-19
1.75201e-18
4.31569e-18
9.23359e-18
1.71389e-17
2.76916e-17
3.93168e-17
4.98574e-17
5.77192e-17
6.24938e-17
6.46272e-17
6.46257e-17
6.2489e-17
5.77107e-17
4.98451e-17
3.9302e-17
2.76768e-17
1.71265e-17
9.22491e-18
4.31053e-18
1.74941e-18
6.19199e-19
1.92237e-19
5.26883e-20
1.28331e-20
2.79569e-21
5.48074e-22
9.72438e-23
1.56981e-23
2.31689e-24
3.14032e-25
3.92491e-26
4.54053e-27
4.87871e-28
4.88438e-29
4.56979e-30
4.00632e-31
3.29953e-32
2.55878e-33
1.87255e-34
1.2958e-35
8.49514e-37
5.2857e-38
3.12652e-39
1.76087e-40
9.45674e-42
4.84966e-43
2.37797e-44
1.11627e-45
5.02245e-47
2.16834e-48
8.99227e-50
3.58575e-51
1.3762e-52
5.08824e-54
1.81395e-55
6.24045e-57
2.07343e-58
6.65855e-60
2.06822e-61
6.03709e-63
1.73246e-61
5.8644e-60
1.86463e-58
5.73354e-57
1.70373e-55
4.88867e-54
1.35344e-52
3.61225e-51
9.28589e-50
2.29705e-48
5.46259e-47
1.24756e-45
2.73332e-44
5.73849e-43
1.15309e-41
2.21483e-40
4.06118e-39
7.09883e-38
1.18113e-36
1.86763e-35
2.80183e-34
3.98077e-33
5.34605e-32
6.77253e-31
8.07543e-30
9.04175e-29
9.4822e-28
9.28853e-27
8.47387e-26
7.17669e-25
5.62299e-24
4.06047e-23
2.69138e-22
1.63017e-21
8.97966e-21
4.47497e-20
2.00629e-19
8.04432e-19
2.86674e-18
9.02353e-18
2.49387e-17
6.02123e-17
1.26584e-16
2.3164e-16
3.70472e-16
5.22873e-16
6.61529e-16
7.65939e-16
8.30205e-16
8.59289e-16
8.59271e-16
8.30145e-16
7.65831e-16
6.61376e-16
5.22692e-16
3.70291e-16
2.31487e-16
1.26475e-16
6.01464e-17
2.49048e-17
9.00855e-18
2.86101e-18
8.02524e-19
2.0007e-19
4.46049e-20
8.94619e-21
1.62323e-21
2.67839e-22
4.03838e-23
5.58872e-24
7.12796e-25
8.41008e-26
9.21136e-27
9.39561e-28
8.95135e-29
7.98733e-30
6.69218e-31
5.27729e-32
3.92541e-33
2.75982e-34
1.83752e-35
1.16069e-36
6.96729e-38
3.98077e-39
2.16806e-40
1.12717e-41
5.60143e-43
2.66406e-44
1.21407e-45
5.30752e-47
2.22819e-48
8.99227e-50
3.49194e-51
1.30601e-52
4.70866e-54
1.63789e-55
5.50122e-57
1.7855e-58
5.60399e-60
1.6521e-61
4.55594e-60
1.52682e-58
4.80379e-57
1.46133e-55
4.29505e-54
1.21871e-52
3.33572e-51
8.79964e-50
2.23531e-48
5.46259e-47
1.28299e-45
2.89306e-44
6.25656e-43
1.29616e-41
2.56923e-40
4.8665e-39
8.79662e-38
1.51525e-36
2.4835e-35
3.86689e-34
5.71003e-33
7.9819e-32
1.0542e-30
1.31279e-29
1.53798e-28
1.69108e-27
1.74069e-26
1.67272e-25
1.49617e-24
1.24164e-23
9.52705e-23
6.73331e-22
4.36549e-21
2.58494e-20
1.39125e-19
6.77122e-19
2.96384e-18
1.16003e-17
4.03586e-17
1.24085e-16
3.35328e-16
7.93055e-16
1.6374e-15
2.95302e-15
4.67393e-15
6.55629e-15
8.27471e-15
9.58121e-15
1.03963e-14
1.07699e-14
1.07697e-14
1.03956e-14
9.57995e-15
8.27293e-15
6.55419e-15
4.67183e-15
2.95123e-15
1.63612e-15
7.92264e-16
3.34913e-16
1.23897e-16
4.0285e-17
1.15751e-17
2.95628e-18
6.7511e-19
1.38648e-19
2.5748e-20
4.34602e-21
6.69941e-22
9.47323e-23
1.23382e-23
1.4857e-24
1.65978e-25
1.72587e-26
1.6753e-27
1.5223e-28
1.29821e-29
1.0415e-30
7.87781e-32
5.62966e-33
3.80829e-34
2.44307e-35
1.48882e-36
8.63253e-38
4.76961e-39
2.51474e-40
1.26693e-41
6.10675e-43
2.81964e-44
1.24852e-45
5.30752e-47
2.16834e-48
8.5218e-50
3.22485e-51
1.17612e-52
4.13744e-54
1.40508e-55
4.61002e-57
1.46235e-58
4.35488e-60
1.15302e-58
3.82484e-57
1.19055e-55
3.58222e-54
1.04115e-52
2.92071e-51
7.90158e-50
2.05976e-48
5.16895e-47
1.24756e-45
2.89306e-44
6.43935e-43
1.37415e-41
2.80825e-40
5.48928e-39
1.02498e-37
1.82576e-36
3.09799e-35
4.99987e-34
7.66266e-33
1.11325e-31
1.5304e-30
1.98685e-29
2.43088e-28
2.79661e-27
3.01804e-26
3.04734e-25
2.87088e-24
2.51597e-23
2.0445e-22
1.53512e-21
1.06104e-20
6.72332e-20
3.88849e-19
2.04301e-18
9.70185e-18
4.14199e-17
1.58096e-16
5.36472e-16
1.60966e-15
4.25001e-15
9.83904e-15
1.99407e-14
3.54295e-14
5.54811e-14
7.73345e-14
9.73527e-14
1.1272e-13
1.22438e-13
1.2695e-13
1.26947e-13
1.2243e-13
1.12706e-13
9.73333e-14
7.73117e-14
5.54583e-14
3.541e-14
1.99264e-14
9.83013e-15
4.24523e-15
1.60744e-15
5.35581e-16
1.57783e-16
4.13234e-17
9.67546e-18
2.03659e-18
3.87447e-19
6.6957e-20
1.05611e-20
1.52711e-21
2.03257e-22
2.49964e-23
2.85025e-24
3.02321e-25
2.9918e-26
2.77001e-27
2.40568e-28
1.96446e-29
1.51172e-30
1.09857e-31
7.55373e-33
4.92347e-34
3.04721e-35
1.79373e-36
1.00577e-37
5.37959e-39
2.74853e-40
1.34311e-41
6.28503e-43
2.81964e-44
1.21407e-45
5.02245e-47
1.99819e-48
7.65282e-50
2.82398e-51
1.00492e-52
3.45139e-54
1.14496e-55
3.67144e-57
1.10467e-58
2.80549e-57
9.21006e-56
2.83556e-54
8.43702e-53
2.42434e-51
6.72209e-50
1.79704e-48
4.6278e-47
1.14699e-45
2.73332e-44
6.25656e-43
1.37415e-41
2.89272e-40
5.82964e-39
1.12333e-37
2.06697e-36
3.62685e-35
6.05985e-34
9.62629e-33
1.45148e-31
2.07378e-30
2.80226e-29
3.57428e-28
4.29423e-27
4.8486e-26
5.1325e-25
5.0803e-24
4.68902e-23
4.02342e-22
3.19902e-21
2.34866e-20
1.58621e-19
9.81454e-19
5.53912e-18
2.83817e-17
1.31372e-16
5.46478e-16
2.03201e-15
6.71841e-15
1.96534e-14
5.06552e-14
1.14711e-13
2.2808e-13
3.99077e-13
6.1813e-13
8.55993e-13
1.07462e-12
1.24409e-12
1.35271e-12
1.40379e-12
1.40377e-12
1.35263e-12
1.24394e-12
1.07442e-12
8.55761e-13
6.17898e-13
3.98877e-13
2.27932e-13
1.14617e-13
5.06037e-14
1.9629e-14
6.7083e-15
2.02836e-15
5.45318e-16
1.31046e-16
2.83001e-17
5.52082e-18
9.77753e-19
1.57944e-19
2.33735e-20
3.18177e-21
3.99926e-22
4.6578e-23
5.04296e-24
5.09102e-25
4.80568e-26
4.25273e-27
3.5367e-28
2.7703e-29
2.0482e-30
1.43216e-31
9.48841e-33
5.96665e-34
3.5671e-35
2.03056e-36
1.10221e-37
5.71293e-39
2.83115e-40
1.34311e-41
6.10675e-43
2.66406e-44
1.11627e-45
4.49704e-47
1.74353e-48
6.51139e-50
2.34445e-51
8.14506e-53
2.73263e-54
8.85973e-56
2.69385e-57
6.55589e-56
2.12949e-54
6.48332e-53
1.90718e-51
5.41669e-50
1.48414e-48
3.91961e-47
9.96914e-46
2.43959e-44
5.73849e-43
1.29616e-41
2.80825e-40
5.82964e-39
1.15814e-37
2.19915e-36
3.98609e-35
6.88711e-34
1.13262e-32
1.77015e-31
2.62479e-30
3.68616e-29
4.89364e-28
6.12914e-27
7.22681e-26
8.00351e-25
8.30491e-24
8.05317e-23
7.27691e-22
6.10876e-21
4.74855e-20
3.40596e-19
2.24563e-18
1.35546e-17
7.45742e-17
3.72248e-16
1.67764e-15
6.79187e-15
2.4575e-14
7.90794e-14
2.25303e-13
5.66342e-13
1.25355e-12
2.44378e-12
4.20913e-12
6.44657e-12
8.86709e-12
1.10994e-11
1.28466e-11
1.39818e-11
1.45224e-11
1.45221e-11
1.3981e-11
1.28452e-11
1.10975e-11
8.8649e-12
6.44438e-12
4.20723e-12
2.44236e-12
1.25263e-12
5.65824e-13
2.2505e-13
7.89721e-14
2.45351e-14
6.77882e-15
1.67386e-15
3.71274e-16
7.43492e-17
1.35078e-17
2.23683e-18
3.39089e-19
4.72498e-20
6.07491e-21
7.23213e-22
7.99837e-23
8.24267e-24
7.93771e-25
7.16187e-26
6.06913e-27
4.84161e-28
3.64372e-29
2.59215e-30
1.74643e-31
1.11631e-32
6.78076e-34
3.92022e-35
2.16033e-36
1.13635e-37
5.71293e-39
2.74853e-40
1.26693e-41
5.60143e-43
2.37797e-44
9.70328e-46
3.80938e-47
1.44017e-48
5.24791e-50
1.84474e-51
6.26053e-53
2.05277e-54
6.30869e-56
1.46969e-54
4.72245e-53
1.42146e-51
4.13302e-50
1.15995e-48
3.13976e-47
8.18965e-46
2.05663e-44
4.96781e-43
1.15309e-41
2.56923e-40
5.48928e-39
1.12333e-37
2.19915e-36
4.11349e-35
7.34172e-34
1.24854e-32
2.02011e-31
3.10478e-30
4.52521e-29
6.24344e-28
8.1388e-27
1.00039e-25
1.15692e-24
1.25592e-23
1.27663e-22
1.21187e-21
1.07125e-20
8.7909e-20
6.67501e-19
4.67307e-18
3.0049e-17
1.76752e-16
9.46937e-16
4.59948e-15
2.01582e-14
7.93285e-14
2.7896e-13
8.72605e-13
2.41858e-12
5.92327e-12
1.2804e-11
2.44585e-11
4.14498e-11
6.2752e-11
8.57098e-11
1.06954e-10
1.23742e-10
1.34799e-10
1.4013e-10
1.40128e-10
1.34792e-10
1.2373e-10
1.06937e-10
8.56906e-11
6.27327e-11
4.1433e-11
2.44457e-11
1.27956e-11
5.91842e-12
2.41615e-12
8.71543e-13
2.78553e-13
7.9191e-14
2.01171e-14
4.58856e-15
9.4434e-16
1.76196e-16
2.99414e-17
4.65414e-18
6.64459e-19
8.7461e-20
1.06517e-20
1.20425e-21
1.26778e-22
1.24636e-23
1.14728e-24
9.91287e-26
8.0583e-27
6.17648e-28
4.47273e-29
3.06594e-30
1.99292e-31
1.2305e-32
7.2281e-34
4.04545e-35
2.16033e-36
1.10221e-37
5.37959e-39
2.51474e-40
1.12717e-41
4.84966e-43
2.00495e-44
7.97246e-46
3.05201e-47
1.12583e-48
4.00519e-50
1.37529e-51
4.56155e-53
1.41725e-54
3.15704e-53
1.00329e-51
2.98492e-50
8.57628e-49
2.37788e-47
6.35692e-46
1.63717e-44
4.05822e-43
9.67302e-42
2.21483e-40
4.8665e-39
1.02498e-37
2.06697e-36
3.98609e-35
7.34172e-34
1.28973e-32
2.15788e-31
3.43343e-30
5.18684e-29
7.427e-28
1.00617e-26
1.28718e-25
1.55176e-24
1.75903e-23
1.87051e-22
1.86122e-21
1.72827e-20
1.49329e-19
1.19686e-18
8.86883e-18
6.05418e-17
3.79271e-16
2.17159e-15
1.13153e-14
5.34131e-14
2.27351e-13
8.68505e-13
2.96418e-12
9.00137e-12
2.42411e-11
5.77788e-11
1.21867e-10
2.27947e-10
3.79904e-10
5.68314e-10
7.70579e-10
9.58371e-10
1.10821e-09
1.20822e-09
1.25704e-09
1.25702e-09
1.20816e-09
1.10811e-09
9.58234e-10
7.70422e-10
5.68157e-10
3.79766e-10
2.27842e-10
1.21795e-10
5.77368e-11
2.42194e-11
8.99159e-12
2.96031e-12
8.67154e-13
2.26934e-13
5.32986e-14
1.12872e-14
2.16539e-15
3.78035e-16
6.03179e-17
8.83186e-18
1.19127e-18
1.4855e-19
1.71827e-20
1.84932e-21
1.85735e-22
1.74546e-23
1.53868e-24
1.27537e-25
9.96142e-27
7.34685e-28
5.1264e-29
3.39033e-30
2.12877e-31
1.27107e-32
7.2281e-34
3.92022e-35
2.03056e-36
1.00577e-37
4.76961e-39
2.16806e-40
9.45674e-42
3.96228e-43
1.5963e-44
6.18956e-46
2.31194e-47
8.32609e-49
2.89343e-50
9.71007e-52
3.05062e-53
6.49018e-52
2.03942e-50
5.99582e-49
1.7019e-47
4.66046e-46
1.23017e-44
3.12727e-43
7.64941e-42
1.79861e-40
4.06118e-39
8.79662e-38
1.82576e-36
3.62685e-35
6.88711e-34
1.24854e-32
2.15788e-31
3.55045e-30
5.55268e-29
8.24095e-28
1.15866e-26
1.54043e-25
1.93277e-24
2.28384e-23
2.53588e-22
2.63956e-21
2.56902e-20
2.33155e-19
1.9674e-18
1.53865e-17
1.11154e-16
7.39066e-16
4.50548e-15
2.50799e-14
1.26933e-13
5.81496e-13
2.40033e-12
8.88786e-12
2.93966e-11
8.65361e-11
2.26127e-10
5.23923e-10
1.07719e-09
1.97144e-09
3.22947e-09
4.77174e-09
6.42084e-09
7.95695e-09
9.19434e-09
1.00312e-08
1.04447e-08
1.04445e-08
1.00307e-08
9.19356e-09
7.95592e-09
6.41967e-09
4.77057e-09
3.22843e-09
1.97063e-09
1.07663e-09
5.23586e-10
2.25949e-10
8.64527e-11
2.93625e-11
8.87553e-12
2.39639e-12
5.80377e-13
1.26649e-13
2.50152e-14
4.49216e-15
7.36581e-16
1.10732e-16
1.53208e-17
1.958e-18
2.31917e-19
2.55392e-20
2.62245e-21
2.51782e-22
2.26604e-23
1.91634e-24
1.52619e-25
1.14705e-26
8.15169e-28
5.48782e-29
3.50583e-30
2.12877e-31
1.2305e-32
6.78076e-34
3.5671e-35
1.79373e-36
8.63253e-38
3.98077e-39
1.76087e-40
7.47957e-42
3.0539e-43
1.19971e-44
4.53885e-46
1.65515e-47
5.82266e-49
1.97756e-50
6.28384e-52
1.27522e-50
3.96129e-49
1.15054e-47
3.22548e-46
8.72109e-45
2.27229e-43
5.70014e-42
1.37541e-40
3.18919e-39
7.09883e-38
1.51525e-36
3.09799e-35
6.05985e-34
1.13262e-32
2.02011e-31
3.43343e-30
5.55268e-29
8.5314e-28
1.24326e-26
1.7154e-25
2.23674e-24
2.75072e-23
3.18373e-22
3.4602e-21
3.52276e-20
3.35087e-19
2.96973e-18
2.44492e-17
1.86387e-16
1.31126e-15
8.48208e-15
5.02543e-14
2.71598e-13
1.33324e-12
5.91842e-12
2.36542e-11
8.47556e-11
2.71216e-10
7.72699e-10
1.95627e-09
4.40021e-09
8.80937e-09
1.57625e-08
2.53639e-08
3.69992e-08
4.93893e-08
6.09673e-08
7.03818e-08
7.6832e-08
8.00561e-08
8.00549e-08
7.68286e-08
7.03764e-08
6.09602e-08
4.93813e-08
3.69912e-08
2.53567e-08
1.57568e-08
8.80538e-09
4.39773e-09
1.95491e-09
7.72045e-10
2.70938e-10
8.46514e-11
2.36197e-11
5.90825e-12
1.33056e-12
2.70968e-13
5.01203e-14
8.45627e-15
1.30674e-15
1.85663e-16
2.43427e-17
2.9553e-18
3.33282e-19
3.50179e-20
3.43753e-21
3.16087e-22
2.72914e-23
2.21762e-24
1.69949e-25
1.23078e-26
8.43889e-28
5.48782e-29
3.39033e-30
1.99292e-31
1.11631e-32
5.96665e-34
3.04721e-35
1.48882e-36
6.96729e-38
3.12652e-39
1.34679e-40
5.57469e-42
2.21948e-43
8.50733e-45
3.1422e-46
1.11929e-47
3.84823e-49
1.23704e-50
2.39144e-49
7.34191e-48
2.10612e-46
5.82989e-45
1.55595e-43
4.00049e-42
9.89972e-41
2.35566e-39
5.38461e-38
1.18113e-36
2.4835e-35
4.99987e-34
9.62629e-33
1.77015e-31
3.10478e-30
5.18684e-29
8.24095e-28
1.24326e-26
1.77798e-25
2.40598e-24
3.07489e-23
3.70391e-22
4.19606e-21
4.46037e-20
4.43786e-19
4.12194e-18
3.5639e-17
2.85975e-16
2.12277e-15
1.4526e-14
9.12967e-14
5.24972e-13
2.75048e-12
1.30746e-11
5.61455e-11
2.16881e-10
7.50613e-10
2.31957e-09
6.38435e-09
1.56343e-08
3.409e-08
6.63797e-08
1.16014e-07
1.83254e-07
2.63774e-07
3.4915e-07
4.29174e-07
4.94847e-07
5.40408e-07
5.63439e-07
5.63432e-07
5.40387e-07
4.94812e-07
4.2913e-07
3.491e-07
2.63724e-07
1.83209e-07
1.15978e-07
6.63536e-08
3.40733e-08
1.56248e-08
6.37964e-09
2.31749e-09
7.49801e-10
2.16601e-10
5.60599e-11
1.30512e-11
2.74477e-12
5.23715e-13
9.10463e-14
1.44807e-14
2.11529e-15
2.84843e-16
3.54812e-17
4.10165e-18
4.41367e-19
4.43356e-20
4.16836e-21
3.67715e-22
3.05066e-23
2.38537e-24
1.76146e-25
1.23078e-26
8.15169e-28
5.1264e-29
3.06594e-30
1.74643e-31
9.48841e-33
4.92347e-34
2.44307e-35
1.16069e-36
5.2857e-38
2.3098e-39
9.69575e-41
3.91339e-42
1.52019e-43
5.68868e-45
2.05242e-46
7.14506e-48
2.32415e-49
4.27402e-48
1.29651e-46
3.67231e-45
1.00341e-43
2.64266e-42
6.70272e-41
1.63571e-39
3.83703e-38
8.64322e-37
1.86763e-35
3.86689e-34
7.66266e-33
1.45148e-31
2.62479e-30
4.52521e-29
7.427e-28
1.15866e-26
1.7154e-25
2.40598e-24
3.19113e-23
3.99464e-22
4.70969e-21
5.21831e-20
5.42083e-19
5.26626e-18
4.77166e-17
4.02079e-16
3.14113e-15
2.26757e-14
1.50732e-13
9.19175e-13
5.12183e-12
2.59717e-11
1.1934e-10
4.9481e-10
1.84367e-09
6.15056e-09
1.83167e-08
4.8607e-08
1.14921e-07
2.42525e-07
4.5871e-07
7.82302e-07
1.21208e-06
1.72047e-06
2.25711e-06
2.76154e-06
3.1792e-06
3.47247e-06
3.62229e-06
3.62225e-06
3.47235e-06
3.17901e-06
2.76129e-06
2.25682e-06
1.72019e-06
1.21182e-06
7.82091e-07
4.58555e-07
2.42423e-07
1.14861e-07
4.8576e-08
1.83024e-08
6.14476e-09
1.84158e-09
4.94145e-10
1.19151e-10
2.59237e-11
5.11088e-12
9.16915e-13
1.50309e-13
2.26036e-14
3.12987e-15
4.00463e-16
4.75028e-17
5.24007e-18
5.39104e-19
5.18676e-20
4.67846e-21
3.9657e-22
3.16595e-23
2.38537e-24
1.69949e-25
1.14705e-26
7.34685e-28
4.47273e-29
2.59215e-30
1.43216e-31
7.55373e-33
3.80829e-34
1.83752e-35
8.49514e-37
3.76729e-38
1.60423e-39
6.56627e-41
2.58584e-42
9.80653e-44
3.58458e-45
1.26392e-46
4.16121e-48
7.26825e-47
2.17794e-45
6.08942e-44
1.64191e-42
4.26587e-41
1.06701e-39
2.56701e-38
5.93414e-37
1.3168e-35
2.80183e-34
5.71003e-33
1.11325e-31
2.07378e-30
3.68616e-29
6.24344e-28
1.00617e-26
1.54043e-25
2.23674e-24
3.07489e-23
3.99464e-22
4.89434e-21
5.64366e-20
6.11078e-19
6.19803e-18
5.87368e-17
5.18642e-16
4.25445e-15
3.23196e-14
2.26605e-13
1.46115e-12
8.63167e-12
4.653e-11
2.27935e-10
1.01042e-09
4.0364e-09
1.44743e-08
4.6436e-08
1.32956e-07
3.39404e-07
7.73129e-07
1.5763e-06
2.89176e-06
4.80691e-06
7.29886e-06
1.02094e-05
1.32669e-05
1.61484e-05
1.85544e-05
2.0263e-05
2.11445e-05
2.11443e-05
2.02624e-05
1.85534e-05
1.61472e-05
1.32655e-05
1.0208e-05
7.29754e-06
4.80582e-06
2.89093e-06
1.57574e-06
7.72787e-07
3.39219e-07
1.32867e-07
4.63982e-08
1.44601e-08
4.03167e-09
1.00901e-09
2.27563e-10
4.64417e-11
8.61275e-12
1.45748e-12
2.25957e-13
3.22151e-14
4.239e-15
5.16536e-16
5.84713e-17
6.167e-18
6.07704e-19
5.60942e-20
4.86184e-21
3.9657e-22
3.05066e-23
2.21762e-24
1.52619e-25
9.96142e-27
6.17648e-28
3.64372e-29
2.0482e-30
1.09857e-31
5.62966e-33
2.75982e-34
1.2958e-35
5.8337e-37
2.52095e-38
1.04675e-39
4.18024e-41
1.60712e-42
5.95341e-44
2.12672e-45
7.08865e-47
1.17411e-45
3.47444e-44
9.58638e-43
2.54993e-41
6.53348e-40
1.61106e-38
3.81962e-37
8.69835e-36
1.90069e-34
3.98077e-33
7.9819e-32
1.5304e-30
2.80226e-29
4.89364e-28
8.1388e-27
1.28718e-25
1.93277e-24
2.75072e-23
3.70391e-22
4.70969e-21
5.64366e-20
6.3595e-19
6.72318e-18
6.65181e-17
6.14285e-16
5.28001e-15
4.21132e-14
3.1068e-13
2.11262e-12
1.31931e-11
7.53708e-11
3.92314e-10
1.85277e-09
7.90576e-09
3.03552e-08
1.04493e-07
3.21522e-07
8.8272e-07
2.16205e-06
4.73379e-06
9.30565e-06
1.65309e-05
2.67488e-05
3.97627e-05
5.47624e-05
7.04379e-05
8.52426e-05
9.77004e-05
0.000106639
0.000111292
0.000111291
0.000106636
9.76958e-05
8.52368e-05
7.04315e-05
5.47559e-05
3.97566e-05
2.67437e-05
1.65269e-05
9.30289e-06
4.73204e-06
2.16105e-06
8.8222e-07
3.21299e-07
1.04404e-07
3.03243e-08
7.89619e-09
1.85012e-09
3.91657e-10
7.52245e-11
1.31636e-11
2.10722e-12
3.0978e-13
4.19755e-14
5.26065e-15
6.11772e-16
6.62159e-17
6.68941e-18
6.32433e-19
5.60942e-20
4.67846e-21
3.67715e-22
2.72914e-23
1.91634e-24
1.27537e-25
8.0583e-27
4.84161e-28
2.7703e-29
1.51172e-30
7.87781e-32
3.92541e-33
1.87255e-34
8.56154e-36
3.75588e-37
1.58259e-38
6.41132e-40
2.49956e-41
9.38664e-43
3.39816e-44
1.14701e-45
1.79841e-44
5.2542e-43
1.43016e-41
3.75163e-40
9.47655e-39
2.3029e-37
5.37867e-36
1.20618e-34
2.59434e-33
5.34605e-32
1.0542e-30
1.98685e-29
3.57428e-28
6.12914e-27
1.00039e-25
1.55176e-24
2.28384e-23
3.18373e-22
4.19606e-21
5.21831e-20
6.11078e-19
6.72318e-18
6.93315e-17
6.68437e-16
6.00873e-15
5.02146e-14
3.88909e-13
2.78222e-12
1.83195e-11
1.10606e-10
6.09906e-10
3.05892e-09
1.3895e-08
5.69261e-08
2.09509e-07
6.90286e-07
2.03093e-06
5.32996e-06
1.24885e-05
2.62112e-05
4.95645e-05
8.50996e-05
0.000133839
0.000194538
0.000263528
0.000335211
0.000403011
0.00046045
0.000502038
0.000523848
0.000523844
0.000502026
0.000460432
0.000402988
0.000335185
0.000263502
0.000194514
0.000133818
8.5083e-05
4.95525e-05
2.62033e-05
1.24837e-05
5.32744e-06
2.02974e-06
6.89792e-07
2.09327e-07
5.68667e-08
1.38777e-08
3.05444e-09
6.08864e-10
1.10388e-10
1.82779e-11
2.77502e-12
3.87771e-13
5.00491e-14
5.98657e-15
6.65693e-16
6.9016e-17
6.68941e-18
6.07704e-19
5.18676e-20
4.16836e-21
3.16087e-22
2.26604e-23
1.53868e-24
9.91287e-26
6.06913e-27
3.5367e-28
1.96446e-29
1.0415e-30
5.27729e-32
2.55878e-33
1.1886e-34
5.29542e-36
2.26511e-37
9.31191e-39
3.68273e-40
1.40243e-41
5.14677e-43
1.75972e-44
2.60694e-43
7.51739e-42
2.01798e-40
5.21883e-39
1.29918e-37
3.11023e-36
7.15356e-35
1.5791e-33
3.34182e-32
6.77253e-31
1.31279e-29
2.43088e-28
4.29423e-27
7.22681e-26
1.15692e-24
1.75903e-23
2.53588e-22
3.4602e-21
4.46037e-20
5.42083e-19
6.19803e-18
6.65181e-17
6.68437e-16
6.27303e-15
5.48237e-14
4.44865e-13
3.34085e-12
2.31397e-11
1.47278e-10
8.5803e-10
4.55701e-09
2.19698e-08
9.57361e-08
3.75491e-07
1.32043e-06
4.14993e-06
1.16332e-05
2.90794e-05
6.49548e-05
0.000130276
0.000236337
0.000391329
0.000597127
0.000847407
0.00112765
0.0014169
0.0016906
0.0019237
0.00209368
0.00218336
0.00218334
0.00209364
0.00192364
0.00169052
0.00141681
0.00112756
0.000847323
0.000597053
0.000391268
0.000236291
0.000130244
6.49348e-05
2.90681e-05
1.16276e-05
4.14745e-06
1.31946e-06
3.75157e-07
9.56338e-08
2.1942e-08
4.55022e-09
8.56543e-10
1.46983e-10
2.30867e-11
3.33214e-12
4.43555e-13
5.46424e-14
6.24985e-15
6.65693e-16
6.62159e-17
6.167e-18
5.39104e-19
4.43356e-20
3.43753e-21
2.51782e-22
1.74546e-23
1.14728e-24
7.16187e-26
4.25273e-27
2.40568e-28
1.29821e-29
6.69218e-31
3.29953e-32
1.55782e-33
7.05113e-35
3.06297e-36
1.27826e-37
5.12993e-39
1.98165e-40
7.37462e-42
2.55481e-43
3.56889e-42
1.01545e-40
2.68745e-39
6.8497e-38
1.67987e-36
3.96042e-35
8.96665e-34
1.94754e-32
4.05354e-31
8.07543e-30
1.53798e-28
2.79661e-27
4.8486e-26
8.00351e-25
1.25592e-23
1.87051e-22
2.63956e-21
3.52276e-20
4.43786e-19
5.26626e-18
5.87368e-17
6.14285e-16
6.00873e-15
5.48237e-14
4.65227e-13
3.6603e-12
2.66115e-11
1.78144e-10
1.09386e-09
6.13607e-09
3.13121e-08
1.4472e-07
6.0315e-07
2.25718e-06
7.55629e-06
2.25632e-05
6.00109e-05
0.000142275
0.000301738
0.000576187
0.000999652
0.00159214
0.00235197
0.00325277
0.00424507
0.00526109
0.00622122
0.00704139
0.00764219
0.00796029
0.00796025
0.00764207
0.00704121
0.00622099
0.00526084
0.00424481
0.00325253
0.00235174
0.00159194
0.000999502
0.000576077
0.000301665
0.000142231
5.99875e-05
2.25521e-05