/*--------------------------------*- C++ -*----------------------------------*\
  =========                 |
  \\      /  F ield         | OpenFOAM: The Open Source CFD Toolbox
   \\    /   O peration     | Website:  https://openfoam.org
    \\  /    A nd           | Version:  10
     \\/     M anipulation  |
\*---------------------------------------------------------------------------*/
FoamFile
{
    format      ascii;
    class       volScalarField;
    location    "5";
    object      h_0;
}
// * * * * * * * * * * * * * * * * * * * * * * * * * * * * * * * * * * * * * //

dimensions      [0 1 0 0 0 0 0];

internalField   nonuniform List<scalar> 
10000
(
4.92083e-75
1.81139e-73
6.28849e-72
2.11469e-70
6.88368e-69
2.16748e-67
6.59664e-66
1.93901e-64
5.50007e-63
1.50422e-61
3.96294e-60
1.00478e-58
2.44927e-57
5.73402e-56
1.28782e-54
2.77148e-53
5.70814e-52
1.12365e-50
2.11114e-49
3.78012e-48
6.44043e-47
1.04234e-45
1.5996e-44
2.32315e-43
3.18643e-42
4.11833e-41
5.00352e-40
5.69939e-39
6.06931e-38
6.02359e-37
5.55259e-36
4.7362e-35
3.72275e-34
2.68415e-33
1.76623e-32
1.05468e-31
5.67898e-31
2.73789e-30
1.17251e-29
4.42134e-29
1.45403e-28
4.12855e-28
1.00223e-27
2.06372e-27
3.59369e-27
5.32644e-27
6.85529e-27
7.91365e-27
8.49323e-27
8.72769e-27
8.72744e-27
8.49237e-27
7.91195e-27
6.85262e-27
5.32309e-27
3.59035e-27
2.06105e-27
1.00051e-27
4.11949e-28
1.45006e-28
4.40669e-29
1.16787e-29
2.72517e-30
5.64836e-31
1.04815e-31
1.75378e-32
2.6628e-33
3.68956e-34
4.68917e-35
5.49151e-36
5.95055e-37
5.98854e-38
5.6165e-39
4.92428e-40
4.04755e-41
3.12718e-42
2.27656e-43
1.56509e-44
1.01822e-45
6.28083e-47
3.68006e-48
2.05157e-49
1.08992e-50
5.52615e-52
2.6778e-53
1.24174e-54
5.51721e-56
2.35154e-57
9.6253e-59
3.78757e-60
1.43426e-61
5.23149e-63
1.83972e-64
6.24282e-66
2.04584e-67
6.47985e-69
1.98514e-70
5.88656e-72
1.69071e-73
4.57957e-75
1.81139e-73
6.6129e-72
2.27596e-70
7.58644e-69
2.44747e-67
7.63637e-66
2.30259e-64
6.70444e-63
1.88349e-61
5.10082e-60
1.33045e-58
3.33902e-57
8.05502e-56
1.86587e-54
4.14549e-53
8.82345e-52
1.79692e-50
3.49679e-49
6.49314e-48
1.14878e-46
1.93342e-45
3.09019e-44
4.68199e-43
6.71146e-42
9.08318e-41
1.15803e-39
1.3874e-38
1.55792e-37
1.63495e-36
1.59856e-35
1.45121e-34
1.21866e-33
9.42738e-33
6.68763e-32
4.32838e-31
2.54156e-30
1.34546e-29
6.37659e-29
2.68458e-28
9.9542e-28
3.2207e-27
9.00576e-27
2.15633e-26
4.38963e-26
7.58062e-26
1.11829e-25
1.43715e-25
1.65979e-25
1.78316e-25
1.83364e-25
1.83359e-25
1.78299e-25
1.65945e-25
1.43662e-25
1.11763e-25
7.57398e-26
4.3843e-26
2.15286e-26
8.98725e-27
3.21247e-27
9.92329e-28
2.67463e-28
6.34879e-29
1.33864e-29
2.52677e-30
4.29968e-31
6.63753e-32
9.34814e-33
1.20724e-33
1.43613e-34
1.58023e-35
1.61436e-36
1.53646e-37
1.36657e-38
1.13915e-39
8.92288e-41
6.58361e-42
4.58598e-43
3.02215e-44
1.88781e-45
1.11982e-46
6.31855e-48
3.3967e-49
1.74226e-50
8.53877e-52
4.00384e-53
1.79846e-54
7.74776e-56
3.20473e-57
1.27411e-58
4.87369e-60
1.7954e-61
6.37551e-63
2.18421e-64
7.22541e-66
2.30973e-67
7.14042e-69
2.13631e-70
6.1898e-72
1.69071e-73
6.28849e-72
2.27596e-70
7.76249e-69
2.56369e-67
8.19341e-66
2.53208e-64
7.56091e-63
2.17974e-61
6.0619e-60
1.62482e-58
4.19364e-57
1.04124e-55
2.48453e-54
5.69125e-53
1.25012e-51
2.63001e-50
5.29279e-49
1.01754e-47
1.86616e-46
3.26005e-45
5.41604e-44
8.5425e-43
1.27685e-41
1.8051e-40
2.40856e-39
3.02641e-38
3.57232e-37
3.95076e-36
4.08197e-35
3.92791e-34
3.50809e-33
2.89713e-32
2.20324e-31
1.53593e-30
9.76588e-30
5.63179e-29
2.92737e-28
1.36208e-27
5.63004e-27
2.05008e-26
6.51777e-26
1.79272e-25
4.22953e-25
8.5052e-25
1.45579e-24
2.13675e-24
2.74157e-24
3.16774e-24
3.40686e-24
3.50589e-24
3.5058e-24
3.40653e-24
3.16711e-24
2.7406e-24
2.13556e-24
1.4546e-24
8.49554e-25
4.22318e-25
1.78928e-25
6.50224e-26
2.04414e-26
5.61055e-27
1.35653e-27
2.91349e-28
5.60107e-29
9.70515e-30
1.52513e-30
2.18583e-31
2.87158e-32
3.47375e-33
3.88545e-34
4.03346e-35
3.89935e-36
3.52162e-37
2.97972e-38
2.36831e-39
1.77252e-40
1.25202e-41
8.36398e-43
5.29472e-44
3.18194e-45
1.81844e-46
9.89824e-48
5.13949e-49
2.54916e-50
1.2094e-51
5.49513e-53
2.39409e-54
1.00126e-55
4.024e-57
1.55567e-58
5.79083e-60
2.07744e-61
7.18889e-63
2.40161e-64
7.75174e-66
2.41926e-67
7.30589e-69
2.13631e-70
5.88655e-72
2.11469e-70
7.58644e-69
2.56369e-67
8.38784e-66
2.65517e-64
8.12589e-63
2.40244e-61
6.85624e-60
1.88715e-58
5.00531e-57
1.27807e-55
3.13878e-54
7.40629e-53
1.6773e-51
3.64162e-50
7.57072e-49
1.50518e-47
2.85801e-46
5.17546e-45
8.9246e-44
1.46313e-42
2.27662e-41
3.35594e-40
4.67735e-39
6.15082e-38
7.61427e-37
8.85158e-36
9.63737e-35
9.79922e-34
9.27594e-33
8.14649e-32
6.61305e-31
4.94151e-30
3.38356e-29
2.11233e-28
1.19568e-27
6.09903e-27
2.7845e-26
1.12935e-25
4.03629e-25
1.2603e-24
3.40833e-24
7.92054e-24
1.57296e-23
2.66809e-23
3.89596e-23
4.99024e-23
5.76841e-23
6.21063e-23
6.39603e-23
6.39586e-23
6.21006e-23
5.76732e-23
4.98857e-23
3.89391e-23
2.66604e-23
1.57129e-23
7.90946e-24
3.40225e-24
1.25751e-24
4.0254e-25
1.12571e-25
2.77391e-26
6.07203e-27
1.18958e-27
2.10004e-28
3.36125e-29
4.90488e-30
6.55827e-31
8.07151e-32
9.18155e-33
9.68948e-34
9.5191e-35
8.73299e-36
7.50329e-37
6.05361e-38
4.59743e-39
3.29412e-40
2.23152e-41
1.43204e-42
8.72161e-44
5.04974e-45
2.78401e-46
1.46371e-47
7.34923e-49
3.52867e-50
1.62222e-51
7.14927e-53
3.02382e-54
1.22874e-55
4.80193e-57
1.80654e-58
6.54871e-60
2.28942e-61
7.72538e-63
2.5182e-64
7.93545e-66
2.41926e-67
7.14042e-69
1.98513e-70
6.88368e-69
2.44747e-67
8.19341e-66
2.65517e-64
8.32337e-63
2.52211e-61
7.38154e-60
2.08496e-58
5.67868e-57
1.49008e-55
3.76337e-54
9.13961e-53
2.13213e-51
4.77269e-50
1.02396e-48
2.10303e-47
4.12953e-46
7.74218e-45
1.38392e-43
2.35495e-42
3.8087e-41
5.84446e-40
8.49346e-39
1.16665e-37
1.51142e-36
1.84262e-35
2.10873e-34
2.25933e-33
2.25975e-32
2.10329e-31
1.81553e-30
1.44793e-29
1.06252e-28
7.14191e-28
4.37527e-27
2.42952e-26
1.21541e-25
5.44133e-25
2.16423e-24
7.58757e-24
2.32559e-23
6.18094e-23
1.4143e-22
2.7731e-22
4.66065e-22
6.76971e-22
8.65571e-22
1.00094e-21
1.07886e-21
1.11193e-21
1.11191e-21
1.07876e-21
1.00076e-21
8.65297e-22
6.76636e-22
4.6573e-22
2.77037e-22
1.41247e-22
6.1707e-23
2.3208e-23
7.56854e-24
2.15773e-24
5.42207e-25
1.21039e-25
2.41796e-26
4.35148e-27
7.09786e-28
1.05515e-28
1.43668e-29
1.79984e-30
2.08317e-31
2.23595e-32
2.23322e-33
2.08209e-34
1.81729e-35
1.48887e-36
1.1478e-37
8.34545e-39
5.73486e-40
3.73202e-41
2.30417e-42
1.35202e-43
7.55186e-45
4.02146e-46
2.04454e-47
9.93746e-49
4.62355e-50
2.06167e-51
8.82066e-53
3.62488e-54
1.43233e-55
5.4472e-57
1.99568e-58
7.04984e-60
2.40331e-61
7.91289e-63
2.5182e-64
7.75174e-66
2.30973e-67
6.47984e-69
2.16748e-67
7.63637e-66
2.53208e-64
8.12589e-63
2.52211e-61
7.56536e-60
2.19144e-58
6.12505e-57
1.65042e-55
4.28351e-54
1.06983e-52
2.56867e-51
5.9229e-50
1.31014e-48
2.77686e-47
5.63277e-46
1.0921e-44
2.02107e-43
3.56499e-42
5.98446e-41
9.54497e-40
1.44395e-38
2.06801e-37
2.79842e-36
3.57029e-35
4.28479e-34
4.82522e-33
5.08514e-32
5.00066e-31
4.57427e-30
3.87877e-29
3.03748e-28
2.18774e-27
1.44271e-26
8.6678e-26
4.71863e-25
2.31364e-24
1.01508e-23
3.95677e-23
1.35995e-22
4.08931e-22
1.06763e-21
2.40447e-21
4.65356e-21
7.74795e-21
1.11936e-20
1.42853e-20
1.65252e-20
1.78313e-20
1.83928e-20
1.83923e-20
1.78298e-20
1.65223e-20
1.4281e-20
1.11884e-20
7.74276e-21
4.64929e-21
2.40157e-21
1.06599e-21
4.08151e-22
1.35679e-22
3.94575e-23
1.01174e-23
2.30476e-24
4.69772e-25
8.62385e-26
1.4344e-26
2.17354e-27
3.0154e-28
3.84737e-29
4.53324e-30
4.95119e-31
5.02989e-32
4.76787e-33
4.22929e-34
3.52004e-35
2.75576e-36
2.03397e-37
1.41835e-38
9.36316e-40
5.86227e-41
3.48714e-42
1.97396e-43
1.06498e-44
5.48404e-46
2.69903e-47
1.27122e-48
5.73672e-50
2.48336e-51
1.03234e-52
4.12535e-54
1.58629e-55
5.87489e-57
2.09748e-58
7.2252e-60
2.40331e-61
7.72538e-63
2.40161e-64
7.22541e-66
2.04583e-67
6.59664e-66
2.30259e-64
7.56091e-63
2.40244e-61
7.38154e-60
2.19144e-58
6.28143e-57
1.7369e-55
4.62918e-54
1.1881e-52
2.93367e-51
6.96218e-50
1.58636e-48
3.46659e-47
7.25676e-46
1.45342e-44
2.78155e-43
5.07965e-42
8.83895e-41
1.46325e-39
2.30077e-38
3.43009e-37
4.83951e-36
6.44902e-35
8.09933e-34
9.56454e-33
1.0594e-31
1.09765e-30
1.06076e-29
9.53103e-29
7.93492e-28
6.09805e-27
4.30827e-26
2.78563e-25
1.64026e-24
8.74829e-24
4.20134e-23
1.80517e-22
6.89142e-22
2.32058e-21
6.84172e-21
1.75373e-20
3.88598e-20
7.42146e-20
1.22386e-19
1.7584e-19
2.23967e-19
2.59164e-19
2.79959e-19
2.8901e-19
2.89003e-19
2.79936e-19
2.59121e-19
2.23904e-19
1.75764e-19
1.2231e-19
7.41516e-20
3.88165e-20
1.75124e-20
6.82966e-21
2.3156e-21
6.87367e-22
1.79967e-22
4.18639e-23
8.71228e-24
1.63252e-24
2.7707e-25
4.28219e-26
6.05665e-27
7.87483e-28
9.45097e-29
1.05092e-29
1.08646e-30
1.04757e-31
9.448e-33
7.99202e-34
6.35639e-35
4.76438e-36
3.37268e-37
2.25936e-38
1.435e-39
8.6563e-41
4.96752e-42
2.7161e-43
1.41703e-44
7.06375e-46
3.36881e-47
1.53899e-48
6.74237e-50
2.83589e-51
1.14635e-52
4.45791e-54
1.66932e-55
6.02473e-57
2.09748e-58
7.04984e-60
2.28942e-61
7.18889e-63
2.18421e-64
6.24281e-66
1.93901e-64
6.70444e-63
2.17974e-61
6.85624e-60
2.08496e-58
6.12505e-57
1.7369e-55
4.75044e-54
1.25201e-52
3.17688e-51
7.75348e-50
1.81828e-48
4.09294e-47
8.83357e-46
1.82582e-44
3.60961e-43
6.81678e-42
1.22804e-40
2.10731e-39
3.43911e-38
5.32904e-37
7.82654e-36
1.08741e-34
1.42639e-33
1.76266e-32
2.04726e-31
2.22929e-30
2.26973e-29
2.15439e-28
1.90038e-27
1.55246e-26
1.17013e-25
8.10404e-25
5.1342e-24
2.96089e-23
1.54607e-22
7.26717e-22
3.05565e-21
1.14166e-20
3.76387e-20
1.08736e-19
2.73507e-19
5.96025e-19
1.12292e-18
1.83379e-18
2.61985e-18
3.32999e-18
3.85429e-18
4.16819e-18
4.30656e-18
4.30646e-18
4.16786e-18
3.85369e-18
3.32912e-18
2.61879e-18
1.83273e-18
1.12204e-18
5.95413e-19
2.73149e-19
1.08559e-19
3.75641e-20
1.13895e-20
3.04706e-21
7.24325e-22
1.54017e-22
2.94793e-23
5.10861e-24
8.05838e-25
1.16273e-25
1.54149e-26
1.88546e-27
2.1357e-28
2.24805e-29
2.20594e-30
2.02384e-31
1.7407e-32
1.40711e-33
1.07151e-34
7.70308e-36
5.23856e-37
3.37642e-38
2.06616e-39
1.20241e-40
6.66497e-42
3.52401e-43
1.7798e-44
8.59731e-46
3.97696e-47
1.76378e-48
7.50797e-50
3.07076e-51
1.20795e-52
4.57456e-54
1.66932e-55
5.87489e-57
1.99568e-58
6.54871e-60
2.07744e-61
6.37551e-63
1.83972e-64
5.50007e-63
1.88349e-61
6.0619e-60
1.88715e-58
5.67868e-57
1.65042e-55
4.62918e-54
1.25201e-52
3.26231e-51
8.18193e-50
1.97325e-48
4.57155e-47
1.01634e-45
2.1658e-44
4.41866e-43
8.62017e-42
1.60591e-40
2.85298e-39
4.82625e-38
7.76195e-37
1.18483e-35
1.71355e-34
2.34348e-33
3.02463e-32
3.67604e-31
4.19729e-30
4.491e-29
4.49079e-28
4.18437e-27
3.62144e-26
2.90117e-25
2.14325e-24
1.45412e-23
9.02019e-23
5.09106e-22
2.60065e-21
1.19551e-20
4.91548e-20
1.796e-19
5.79293e-19
1.63878e-18
4.04267e-18
8.6603e-18
1.60908e-17
2.60163e-17
3.69532e-17
4.68676e-17
5.42575e-17
5.87413e-17
6.07431e-17
6.07417e-17
5.87369e-17
5.42494e-17
4.6856e-17
3.69394e-17
2.60024e-17
1.60791e-17
8.65213e-18
4.03783e-18
1.63634e-18
5.78239e-19
1.79208e-19
4.90274e-20
1.19188e-20
2.59148e-21
5.07043e-22
8.97852e-23
1.44651e-23
2.13064e-24
2.88208e-25
3.59493e-26
4.15046e-27
4.45068e-28
4.44697e-29
4.15228e-30
3.63308e-31
2.98624e-32
2.31127e-33
1.68811e-34
1.16589e-35
7.62856e-37
4.73733e-38
2.79675e-39
1.57211e-40
8.42686e-42
4.31326e-43
2.11094e-44
9.89045e-46
4.44161e-47
1.91397e-48
7.92248e-50
3.15326e-51
1.20795e-52
4.45791e-54
1.58629e-55
5.4472e-57
1.80654e-58
5.79083e-60
1.7954e-61
5.23149e-63
1.50422e-61
5.10082e-60
1.62482e-58
5.00531e-57
1.49008e-55
4.28351e-54
1.1881e-52
3.17688e-51
8.18193e-50
2.02776e-48
4.83125e-47
1.10545e-45
2.42657e-44
5.10416e-43
1.02759e-41
1.97755e-40
3.63306e-39
6.36275e-38
1.06071e-36
1.68049e-35
2.526e-34
3.59591e-33
4.83872e-32
6.14195e-31
7.33808e-30
8.23254e-29
8.65085e-28
8.49116e-27
7.76203e-26
6.58708e-25
5.17145e-24
3.74196e-23
2.48527e-22
1.50836e-21
8.32527e-21
4.15707e-20
1.8674e-19
7.50168e-19
2.67827e-18
8.44503e-18
2.33778e-17
5.65255e-17
1.1898e-16
2.1794e-16
3.48802e-16
4.92488e-16
6.23184e-16
7.21541e-16
7.82027e-16
8.09378e-16
8.0936e-16
7.8197e-16
7.21439e-16
6.2304e-16
4.92316e-16
3.48631e-16
2.17796e-16
1.18878e-16
5.64635e-17
2.33459e-17
8.43096e-18
2.6729e-18
7.48383e-19
1.86218e-19
4.14357e-20
8.29414e-21
1.50192e-21
2.47323e-22
3.72153e-23
5.13983e-24
6.5422e-25
7.7034e-26
8.42038e-27
8.57159e-28
8.14997e-29
7.25777e-30
6.06886e-31
4.77629e-32
3.54576e-33
2.48801e-34
1.6533e-35
1.0423e-36
6.2445e-38
3.56091e-39
1.93567e-40
1.00442e-41
4.98189e-43
2.3649e-44
1.0757e-45
4.69372e-47
1.96679e-48
7.92248e-50
3.07076e-51
1.14635e-52
4.12535e-54
1.43233e-55
4.80193e-57
1.55567e-58
4.87369e-60
1.43425e-61
3.96294e-60
1.33045e-58
4.19364e-57
1.27807e-55
3.76337e-54
1.06983e-52
2.93367e-51
7.75348e-50
1.97325e-48
4.83125e-47
1.13685e-45
2.56839e-44
5.56498e-43
1.15509e-41
2.29399e-40
4.3535e-39
7.88454e-38
1.36077e-36
2.23466e-35
3.48624e-34
5.15806e-33
7.22454e-32
9.56065e-31
1.19294e-29
1.40037e-28
1.54286e-27
1.59132e-26
1.53227e-25
1.37332e-24
1.14201e-23
8.78039e-23
6.21824e-22
4.03975e-21
2.39691e-20
1.29265e-19
6.30385e-19
2.76468e-18
1.08415e-17
3.77883e-17
1.16385e-16
3.1503e-16
7.46127e-16
1.5424e-15
2.78438e-15
4.41002e-15
6.18857e-15
7.81188e-15
9.04533e-15
9.81419e-15
1.01663e-14
1.01661e-14
9.81352e-15
9.04414e-15
7.8102e-15
6.18658e-15
4.40803e-15
2.78269e-15
1.54119e-15
7.4538e-16
3.14638e-16
1.16208e-16
3.77191e-17
1.08179e-17
2.7576e-18
6.28505e-19
1.2882e-19
2.38747e-20
4.02167e-21
6.18683e-22
8.73063e-23
1.13479e-23
1.36368e-24
1.52038e-25
1.57772e-26
1.52841e-27
1.38605e-28
1.17966e-29
9.44509e-31
7.13003e-32
5.08524e-33
3.43325e-34
2.19817e-35
1.33696e-36
7.73702e-38
4.26657e-39
2.24519e-40
1.12896e-41
5.43134e-43
2.50301e-44
1.10622e-45
4.69372e-47
1.91397e-48
7.50797e-50
2.83589e-51
1.03234e-52
3.62488e-54
1.22874e-55
4.024e-57
1.27411e-58
3.78756e-60
1.00478e-58
3.33902e-57
1.04124e-55
3.13878e-54
9.13961e-53
2.56867e-51
6.96218e-50
1.81828e-48
4.57155e-47
1.10545e-45
2.56839e-44
5.72757e-43
1.22459e-41
2.50741e-40
4.91065e-39
9.18707e-38
1.63964e-36
2.7876e-35
4.50774e-34
6.922e-33
1.00763e-31
1.38795e-30
1.8055e-29
2.21343e-28
2.55156e-27
2.75914e-26
2.79158e-25
2.63528e-24
2.3142e-23
1.88439e-22
1.41781e-21
9.81967e-21
6.23499e-20
3.61344e-19
1.90235e-18
9.05201e-18
3.87219e-17
1.48082e-16
5.03421e-16
1.51314e-15
4.00162e-15
9.27732e-15
1.88251e-14
3.34794e-14
5.24624e-14
7.31558e-14
9.21076e-14
1.06648e-13
1.15835e-13
1.20097e-13
1.20095e-13
1.15828e-13
1.06635e-13
9.20892e-14
7.31342e-14
5.24408e-14
3.34608e-14
1.88116e-14
9.26889e-15
3.9971e-15
1.51105e-15
5.02583e-16
1.47788e-16
3.86313e-17
9.0273e-18
1.89635e-18
3.60035e-19
6.20929e-20
9.77389e-21
1.41038e-21
1.87336e-22
2.29913e-23
2.61628e-24
2.7694e-25
2.73507e-26
2.52721e-27
2.19041e-28
1.7851e-29
1.37095e-30
9.94301e-32
6.8233e-33
4.43864e-34
2.74176e-35
1.61079e-36
9.01437e-38
4.81223e-39
2.45392e-40
1.19684e-41
5.5899e-43
2.50301e-44
1.0757e-45
4.44161e-47
1.76378e-48
6.74237e-50
2.48336e-51
8.82066e-53
3.02382e-54
1.00126e-55
3.20473e-57
9.62529e-59
2.44927e-57
8.05502e-56
2.48453e-54
7.40629e-53
2.13213e-51
5.9229e-50
1.58636e-48
4.09294e-47
1.01634e-45
2.42657e-44
5.56498e-43
1.22459e-41
2.58283e-40
5.21514e-39
1.00686e-37
1.85627e-36
3.26349e-35
5.46341e-34
8.6959e-33
1.31379e-31
1.88078e-30
2.54653e-29
3.2546e-28
3.91804e-27
4.43279e-26
4.70187e-25
4.66356e-24
4.31319e-23
3.70855e-22
2.95474e-21
2.1738e-20
1.47115e-19
9.12143e-19
5.15855e-18
2.64858e-17
1.22844e-16
5.1202e-16
1.90757e-15
6.31869e-15
1.85165e-14
4.78019e-14
1.08404e-13
2.15799e-13
3.77944e-13
5.85786e-13
8.11521e-13
1.01896e-12
1.17967e-12
1.2826e-12
1.33097e-12
1.33094e-12
1.28252e-12
1.17953e-12
1.01878e-12
8.11301e-13
5.85565e-13
3.77755e-13
2.15659e-13
1.08315e-13
4.77531e-14
1.84934e-14
6.30915e-15
1.90413e-15
5.1093e-16
1.22539e-16
2.64094e-17
5.14144e-18
9.08692e-19
1.46485e-19
2.1633e-20
2.93876e-21
3.6862e-22
4.28437e-23
4.62916e-24
4.66375e-25
4.39342e-26
3.88005e-27
3.22027e-28
2.51739e-29
1.8575e-30
1.29625e-31
8.57096e-33
5.37913e-34
3.20956e-35
1.82347e-36
9.87879e-38
5.11043e-39
2.52769e-40
1.19684e-41
5.43134e-43
2.3649e-44
9.89045e-46
3.97696e-47
1.53899e-48
5.73672e-50
2.06167e-51
7.14927e-53
2.39409e-54
7.74776e-56
2.35154e-57
5.73402e-56
1.86587e-54
5.69125e-53
1.6773e-51
4.77269e-50
1.31014e-48
3.46659e-47
8.83357e-46
2.1658e-44
5.10416e-43
1.15509e-41
2.50741e-40
5.21514e-39
1.03807e-37
1.97497e-36
3.58675e-35
6.20928e-34
1.02316e-32
1.60224e-31
2.38053e-30
3.3498e-29
4.45603e-28
5.59229e-27
6.60719e-26
7.33219e-25
7.62388e-24
7.40798e-23
6.70773e-22
5.64262e-21
4.39533e-20
3.15917e-19
2.08726e-18
1.26249e-17
6.96039e-17
3.48155e-16
1.57226e-15
6.37799e-15
2.31223e-14
7.45439e-14
2.12754e-13
5.35658e-13
1.18732e-12
2.31741e-12
3.99518e-12
6.12288e-12
8.42514e-12
1.0548e-11
1.22087e-11
1.32869e-11
1.37999e-11
1.37997e-11
1.32861e-11
1.22073e-11
1.05462e-11
8.42305e-12
6.12078e-12
3.99337e-12
2.31606e-12
1.18644e-12
5.35166e-13
2.12515e-13
7.44424e-14
2.30846e-14
6.36568e-15
1.5687e-15
3.4724e-16
6.93931e-17
1.25812e-17
2.07905e-18
3.14515e-19
4.37343e-20
5.61125e-21
6.66631e-22
7.3574e-23
7.56656e-24
7.27172e-25
6.54762e-26
5.53737e-27
4.4085e-28
3.31111e-29
2.35083e-30
1.5807e-31
1.00838e-32
6.11309e-34
3.52729e-35
1.94001e-36
1.01848e-37
5.11043e-39
2.45392e-40
1.12896e-41
4.98189e-43
2.11094e-44
8.59731e-46
3.36881e-47
1.27122e-48
4.62355e-50
1.62222e-51
5.49513e-53
1.79846e-54
5.5172e-56
1.28782e-54
4.14549e-53
1.25012e-51
3.64162e-50
1.02396e-48
2.77686e-47
7.25676e-46
1.82582e-44
4.41866e-43
1.02759e-41
2.29399e-40
4.91065e-39
1.00686e-37
1.97497e-36
3.70139e-35
6.61915e-34
1.12787e-32
1.82849e-31
2.81586e-30
4.11232e-29
5.68518e-28
7.42604e-27
9.14628e-26
1.0599e-24
1.15296e-23
1.17439e-22
1.11712e-21
9.8955e-21
8.13745e-20
6.1918e-19
4.3439e-18
2.79912e-17
1.64994e-16
8.85799e-16
4.31148e-15
1.89349e-14
7.46648e-14
2.63075e-13
8.24458e-13
2.28915e-12
5.61529e-12
1.21554e-11
2.32467e-11
3.94322e-11
5.97359e-11
8.16219e-11
1.01871e-10
1.17865e-10
1.28391e-10
1.33463e-10
1.3346e-10
1.28384e-10
1.17853e-10
1.01855e-10
8.16035e-11
5.97174e-11
3.94162e-11
2.32346e-11
1.21473e-11
5.61068e-12
2.28684e-12
8.2345e-13
2.62689e-13
7.45349e-14
1.88961e-14
4.30121e-15
8.8336e-16
1.64473e-16
2.78906e-17
4.32624e-18
6.16349e-19
8.09584e-20
9.83918e-21
1.11008e-21
1.16622e-22
1.14415e-23
1.05104e-24
9.06283e-26
7.35235e-27
5.62401e-28
4.06448e-29
2.78053e-30
1.80381e-31
1.11153e-32
6.5164e-34
3.63997e-35
1.94001e-36
9.87879e-38
4.81223e-39
2.24519e-40
1.00442e-41
4.31326e-43
1.7798e-44
7.06375e-46
2.69903e-47
9.93746e-49
3.52867e-50
1.2094e-51
4.00384e-53
1.24174e-54
2.77148e-53
8.82345e-52
2.63001e-50
7.57072e-49
2.10303e-47
5.63277e-46
1.45342e-44
3.60961e-43
8.62017e-42
1.97755e-40
4.3535e-39
9.18707e-38
1.85627e-36
3.58675e-35
6.61915e-34
1.16508e-32
1.9532e-31
3.11394e-30
4.71362e-29
6.76297e-28
9.18064e-27
1.17686e-25
1.42166e-24
1.61486e-23
1.72075e-22
1.71576e-21
1.59653e-20
1.38235e-19
1.11029e-18
8.24471e-18
5.64009e-17
3.54081e-16
2.03167e-15
1.06087e-14
5.01829e-14
2.14045e-13
8.19343e-13
2.80191e-12
8.52465e-12
2.29977e-11
5.4903e-11
1.15963e-10
2.17156e-10
3.62244e-10
5.42239e-10
7.35509e-10
9.1492e-10
1.058e-09
1.15344e-09
1.2e-09
1.19998e-09
1.15338e-09
1.05791e-09
9.1479e-10
7.35359e-10
5.42089e-10
3.62113e-10
2.17055e-10
1.15895e-10
5.48629e-11
2.29771e-11
8.51535e-12
2.79824e-12
8.18064e-13
2.13651e-13
5.0075e-14
1.05822e-14
2.02585e-15
3.52923e-16
5.61916e-17
8.21023e-18
1.10508e-18
1.37512e-19
1.58726e-20
1.70476e-21
1.70861e-22
1.60236e-23
1.40964e-24
1.16602e-25
9.08884e-27
6.68975e-28
4.65852e-29
3.07474e-30
1.92677e-31
1.14818e-32
6.5164e-34
3.52729e-35
1.82347e-36
9.01437e-38
4.26657e-39
1.93567e-40
8.42686e-42
3.52401e-43
1.41703e-44
5.48404e-46
2.04454e-47
7.34923e-49
2.54916e-50
8.53877e-52
2.6778e-53
5.70814e-52
1.79692e-50
5.29279e-49
1.50518e-47
4.12953e-46
1.0921e-44
2.78155e-43
6.81678e-42
1.60591e-40
3.63306e-39
7.88454e-38
1.63964e-36
3.26349e-35
6.20928e-34
1.12787e-32
1.9532e-31
3.22008e-30
5.04609e-29
7.50418e-28
1.05721e-26
1.40841e-25
1.77074e-24
2.09669e-23
2.33289e-22
2.43334e-21
2.37327e-20
2.15843e-19
1.82517e-18
1.43046e-17
1.03559e-16
6.90045e-16
4.21568e-15
2.35172e-14
1.19279e-13
5.47595e-13
2.26514e-12
8.40453e-12
2.78533e-11
8.21484e-11
2.15041e-10
4.99031e-10
1.02744e-09
1.88254e-09
3.08656e-09
4.56344e-09
6.14292e-09
7.61395e-09
8.7984e-09
9.59899e-09
9.99429e-09
9.99414e-09
9.59853e-09
8.79766e-09
7.61297e-09
6.14179e-09
4.56232e-09
3.08557e-09
1.88176e-09
1.0269e-09
4.98709e-10
2.1487e-10
8.2069e-11
2.78209e-11
8.39283e-12
2.26141e-12
5.46537e-13
1.19011e-13
2.34563e-14
4.20318e-15
6.87717e-16
1.03165e-16
1.42433e-17
1.81643e-18
2.14693e-19
2.35927e-20
2.41751e-21
2.31623e-22
2.0803e-23
1.75564e-24
1.39535e-25
1.04658e-26
7.42264e-28
4.98696e-29
3.17949e-30
1.92677e-31
1.11153e-32
6.11309e-34
3.20956e-35
1.61079e-36
7.73702e-38
3.56091e-39
1.57211e-40
6.66497e-42
2.7161e-43
1.06498e-44
4.02146e-46
1.46371e-47
5.13949e-49
1.74226e-50
5.52614e-52
1.12365e-50
3.49679e-49
1.01754e-47
2.85801e-46
7.74218e-45
2.02107e-43
5.07965e-42
1.22804e-40
2.85298e-39
6.36275e-38
1.36077e-36
2.7876e-35
5.46341e-34
1.02316e-32
1.82849e-31
3.11394e-30
5.04609e-29
7.76867e-28
1.1344e-26
1.56839e-25
2.04924e-24
2.52534e-23
2.92894e-22
3.18992e-21
3.25442e-20
3.10217e-19
2.75515e-18
2.27312e-17
1.73663e-16
1.22439e-15
7.93729e-15
4.71289e-14
2.55261e-13
1.25576e-12
5.58648e-12
2.2375e-11
8.03387e-11
2.57599e-10
7.35301e-10
1.86488e-09
4.20133e-09
8.42277e-09
1.50878e-08
2.42994e-08
3.54682e-08
4.73638e-08
5.84782e-08
6.75121e-08
7.3698e-08
7.67885e-08
7.67874e-08
7.36948e-08
6.75069e-08
5.84714e-08
4.73561e-08
3.54605e-08
2.42925e-08
1.50823e-08
8.41895e-09
4.19895e-09
1.86358e-09
7.34676e-10
2.57333e-10
8.02396e-11
2.23422e-11
5.57685e-12
1.25323e-12
2.54666e-13
4.70027e-14
7.91305e-15
1.22015e-15
1.72985e-16
2.26318e-17
2.74173e-18
3.08539e-19
3.23498e-20
3.16895e-21
2.90783e-22
2.50546e-23
2.03167e-24
1.55379e-25
1.12298e-26
7.68416e-28
4.98696e-29
3.07474e-30
1.80381e-31
1.00838e-32
5.37913e-34
2.74176e-35
1.33696e-36
6.2445e-38
2.79675e-39
1.20241e-40
4.96752e-42
1.97396e-43
7.55186e-45
2.78401e-46
9.89824e-48
3.3967e-49
1.08992e-50
2.11114e-49
6.49314e-48
1.86616e-46
5.17546e-45
1.38392e-43
3.56499e-42
8.83895e-41
2.10731e-39
4.82625e-38
1.06071e-36
2.23466e-35
4.50774e-34
8.6959e-33
1.60224e-31
2.81586e-30
4.71362e-29
7.50418e-28
1.1344e-26
1.62561e-25
2.20431e-24
2.82297e-23
3.40751e-22
3.86836e-21
4.12068e-20
4.10857e-19
3.82424e-18
3.3136e-17
2.66466e-16
1.98225e-15
1.35941e-14
8.56274e-14
4.93457e-13
2.59107e-12
1.23439e-11
5.31233e-11
2.05649e-10
7.13234e-10
2.20853e-09
6.0904e-09
1.49409e-08
3.26297e-08
6.3623e-08
1.1132e-07
1.7599e-07
2.53473e-07
3.35644e-07
4.12655e-07
4.75831e-07
5.19639e-07
5.41773e-07
5.41766e-07
5.19618e-07
4.75798e-07
4.12613e-07
3.35596e-07
2.53425e-07
1.75947e-07
1.11285e-07
6.35979e-08
3.26137e-08
1.49318e-08
6.08588e-09
2.20654e-09
7.1246e-10
2.05382e-10
5.3042e-11
1.23217e-11
2.58566e-12
4.92271e-13
8.53917e-14
1.35515e-14
1.97524e-15
2.65407e-16
3.29888e-17
3.80534e-18
4.0861e-19
4.09583e-20
3.84273e-21
3.38281e-22
2.80065e-23
2.18536e-24
1.61046e-25
1.12298e-26
7.42264e-28
4.65852e-29
2.78053e-30
1.5807e-31
8.57096e-33
4.43864e-34
2.19817e-35
1.0423e-36
4.73733e-38
2.06616e-39
8.6563e-41
3.48714e-42
1.35202e-43
5.04974e-45
1.81844e-46
6.31855e-48
2.05156e-49
3.78012e-48
1.14878e-46
3.26005e-45
8.9246e-44
2.35495e-42
5.98446e-41
1.46325e-39
3.43911e-38
7.76195e-37
1.68049e-35
3.48624e-34
6.922e-33
1.31379e-31
2.38053e-30
4.11232e-29
6.76297e-28
1.05721e-26
1.56839e-25
2.20431e-24
2.92968e-23
3.67499e-22
4.34191e-21
4.82096e-20
5.01869e-19
4.88602e-18
4.43667e-17
3.74663e-16
2.93335e-15
2.12224e-14
1.41384e-13
8.64086e-13
4.82563e-12
2.45244e-11
1.12941e-10
4.69316e-10
1.75249e-09
5.85885e-09
1.74837e-08
4.64864e-08
1.10102e-07
2.32724e-07
4.40767e-07
7.52529e-07
1.16694e-06
1.6574e-06
2.17519e-06
2.66188e-06
3.0647e-06
3.34743e-06
3.49181e-06
3.49177e-06
3.34731e-06
3.06451e-06
2.66163e-06
2.17492e-06
1.65712e-06
1.16669e-06
7.52326e-07
4.40618e-07
2.32626e-07
1.10045e-07
4.64566e-08
1.74701e-08
5.85331e-09
1.75051e-09
4.68683e-10
1.12762e-10
2.44789e-11
4.81526e-12
8.61954e-13
1.40985e-13
2.11546e-14
2.9228e-15
3.73152e-16
4.41672e-17
4.86164e-18
4.99101e-19
4.7917e-20
4.31302e-21
3.64828e-22
2.90649e-23
2.18536e-24
1.55379e-25
1.04658e-26
6.68975e-28
4.06448e-29
2.35083e-30
1.29625e-31
6.8233e-33
3.43325e-34
1.6533e-35
7.62856e-37
3.37642e-38
1.435e-39
5.86227e-41
2.30417e-42
8.72161e-44
3.18194e-45
1.11982e-46
3.68006e-48
6.44043e-47
1.93342e-45
5.41604e-44
1.46313e-42
3.8087e-41
9.54497e-40
2.30077e-38
5.32904e-37
1.18483e-35
2.526e-34
5.15806e-33
1.00763e-31
1.88078e-30
3.3498e-29
5.68518e-28
9.18064e-27
1.40841e-25
2.04924e-24
2.82297e-23
3.67499e-22
4.51215e-21
5.21395e-20
5.65752e-19
5.7506e-18
5.46144e-17
4.83293e-16
3.97318e-15
3.02496e-14
2.12565e-13
1.3737e-12
8.13336e-12
4.39432e-11
2.15753e-10
9.58581e-10
3.83795e-09
1.37932e-08
4.43465e-08
1.27237e-07
3.25439e-07
7.42638e-07
1.51653e-06
2.78583e-06
4.63585e-06
7.04499e-06
9.86021e-06
1.28181e-05
1.56056e-05
1.79323e-05
1.95841e-05
2.04359e-05
2.04357e-05
1.95834e-05
1.79314e-05
1.56043e-05
1.28167e-05
9.85881e-06
7.04371e-06
4.63479e-06
2.78503e-06
1.51598e-06
7.42309e-07
3.2526e-07
1.27152e-07
4.43103e-08
1.37796e-08
3.83343e-09
9.57243e-10
2.15399e-10
4.38595e-11
8.11547e-12
1.37023e-12
2.11955e-13
3.01515e-14
3.95869e-15
4.81322e-16
5.43667e-17
5.72171e-18
5.62617e-19
5.18221e-20
4.48208e-21
3.64828e-22
2.80065e-23
2.03167e-24
1.39535e-25
9.08884e-27
5.62401e-28
3.31111e-29
1.8575e-30
9.94301e-32
5.08524e-33
2.48801e-34
1.16589e-35
5.23856e-37
2.25936e-38
9.36316e-40
3.73202e-41
1.43204e-42
5.29472e-44
1.88781e-45
6.28082e-47
1.04234e-45
3.09019e-44
8.5425e-43
2.27662e-41
5.84446e-40
1.44395e-38
3.43009e-37
7.82654e-36
1.71355e-34
3.59591e-33
7.22454e-32
1.38795e-30
2.54653e-29
4.45603e-28
7.42604e-27
1.17686e-25
1.77074e-24
2.52534e-23
3.40751e-22
4.34191e-21
5.21395e-20
5.88781e-19
6.23788e-18
6.18504e-17
5.72427e-16
4.93107e-15
3.94175e-14
2.91445e-13
1.9863e-12
1.24325e-11
7.11887e-11
3.714e-10
1.75806e-09
7.51893e-09
2.89361e-08
9.98327e-08
3.07859e-07
8.46986e-07
2.07861e-06
4.55926e-06
8.97666e-06
1.59676e-05
2.58651e-05
3.84808e-05
5.30286e-05
6.82347e-05
8.25953e-05
9.46767e-05
0.000103343
0.000107852
0.000107851
0.00010334
9.46722e-05
8.25897e-05
6.82284e-05
5.30222e-05
3.84749e-05
2.58602e-05
1.59638e-05
8.97398e-06
4.55756e-06
2.07765e-06
8.46504e-07
3.07644e-07
9.9748e-08
2.89066e-08
7.50979e-09
1.75553e-09
3.70776e-10
7.10499e-11
1.24046e-11
1.98121e-12
2.90597e-13
3.92881e-14
4.91292e-15
5.70077e-16
6.15684e-17
6.20644e-18
5.85513e-19
5.18221e-20
4.31302e-21
3.38281e-22
2.50546e-23
1.75564e-24
1.16602e-25
7.35235e-27
4.4085e-28
2.51739e-29
1.37095e-30
7.13003e-32
3.54576e-33
1.68811e-34
7.70308e-36
3.37268e-37
1.41835e-38
5.73486e-40
2.23152e-41
8.36398e-43
3.02215e-44
1.01821e-45
1.5996e-44
4.68199e-43
1.27685e-41
3.35594e-40
8.49346e-39
2.06801e-37
4.83951e-36
1.08741e-34
2.34348e-33
4.83872e-32
9.56065e-31
1.8055e-29
3.2546e-28
5.59229e-27
9.14628e-26
1.42166e-24
2.09669e-23
2.92894e-22
3.86836e-21
4.82096e-20
5.65752e-19
6.23788e-18
6.44666e-17
6.22896e-16
5.61172e-15
4.70014e-14
3.64844e-13
2.61599e-12
1.72645e-11
1.04478e-10
5.77459e-10
2.90299e-09
1.32178e-08
5.42793e-08
2.00235e-07
6.61251e-07
1.94986e-06
5.12815e-06
1.20395e-05
2.53145e-05
4.79441e-05
8.24258e-05
0.000129772
0.00018878
0.000255881
0.000325614
0.00039157
0.000447438
0.000487879
0.000509083
0.000509079
0.000487867
0.00044742
0.000391548
0.000325589
0.000255855
0.000188757
0.000129751
8.24097e-05
4.79323e-05
2.53068e-05
1.20349e-05
5.12571e-06
1.94871e-06
6.60775e-07
2.0006e-07
5.42223e-08
1.32013e-08
2.89872e-09
5.76469e-10
1.04271e-10
1.72252e-11
2.6092e-12
3.63772e-13
4.6846e-14
5.59095e-15
6.20328e-16
6.41722e-17
6.20644e-18
5.62617e-19
4.7917e-20
3.84273e-21
2.90783e-22
2.0803e-23
1.40964e-24
9.06283e-26
5.53737e-27
3.22027e-28
1.7851e-29
9.44509e-31
4.77629e-32
2.31127e-33
1.07151e-34
4.76438e-36
2.03397e-37
8.34545e-39
3.29412e-40
1.25202e-41
4.58598e-43
1.56509e-44
2.32315e-43
6.71146e-42
1.8051e-40
4.67735e-39
1.16665e-37
2.79842e-36
6.44902e-35
1.42639e-33
3.02463e-32
6.14195e-31
1.19294e-29
2.21343e-28
3.91804e-27
6.60719e-26
1.0599e-24
1.61486e-23
2.33289e-22
3.18992e-21
4.12068e-20
5.01869e-19
5.7506e-18
6.18504e-17
6.22896e-16
5.85858e-15
5.13163e-14
4.17345e-13
3.14134e-12
2.18081e-11
1.39126e-10
8.12454e-10
4.32522e-09
2.09024e-08
9.1304e-08
3.58972e-07
1.26537e-06
3.98625e-06
1.11999e-05
2.80573e-05
6.27984e-05
0.00012618
0.000229264
0.000380115
0.000580627
0.000824662
0.00109804
0.00138027
0.00164734
0.00187477
0.0020406
0.00212807
0.00212806
0.00204056
0.00187471
0.00164726
0.00138019
0.00109795
0.000824579
0.000580554
0.000380055
0.000229219
0.000126149
6.27789e-05
2.80464e-05
1.11945e-05
3.98385e-06
1.26443e-06
3.5865e-07
9.1206e-08
2.08757e-08
4.31875e-09
8.11039e-10
1.38847e-10
2.17579e-11
3.13312e-12
4.16112e-13
5.11459e-14
5.83686e-15
6.20328e-16
6.15684e-17
5.72171e-18
4.99101e-19
4.09583e-20
3.16895e-21
2.31623e-22
1.60236e-23
1.05104e-24
6.54762e-26
3.88005e-27
2.19041e-28
1.17966e-29
6.06886e-31
2.98624e-32
1.40711e-33
6.35639e-35
2.75576e-36
1.1478e-37
4.59743e-39
1.77252e-40
6.58361e-42
2.27656e-43
3.18643e-42
9.08318e-41
2.40856e-39
6.15082e-38
1.51142e-36
3.57029e-35
8.09933e-34
1.76266e-32
3.67604e-31
7.33808e-30
1.40037e-28
2.55156e-27
4.43279e-26
7.33219e-25
1.15296e-23
1.72075e-22
2.43334e-21
3.25442e-20
4.10857e-19
4.88602e-18
5.46144e-17
5.72427e-16
5.61172e-15
5.13163e-14
4.36451e-13
3.44177e-12
2.50808e-11
1.68291e-10
1.03582e-09
5.82446e-09
2.97943e-08
1.38043e-07
5.76744e-07
2.1637e-06
7.26119e-06
2.17345e-05
5.79428e-05
0.000137678
0.000292587
0.000559733
0.000972632
0.00155112
0.00229379
0.0031749
0.00414598
0.00514053
0.00608048
0.00688342
0.00747159
0.00778299
0.00778295
0.00747147
0.00688325
0.00608026
0.00514029
0.00414572
0.00317466
0.00229357
0.00155093
0.000972484
0.000559626
0.000292515
0.000137635
5.792e-05
2.17238e-05
7.25673e-06