/*--------------------------------*- C++ -*----------------------------------*\
  =========                 |
  \\      /  F ield         | OpenFOAM: The Open Source CFD Toolbox
   \\    /   O peration     | Website:  https://openfoam.org
    \\  /    A nd           | Version:  10
     \\/     M anipulation  |
\*---------------------------------------------------------------------------*/
FoamFile
{
    format      ascii;
    class       volScalarField;
    location    "93";
    object      h;
}
// * * * * * * * * * * * * * * * * * * * * * * * * * * * * * * * * * * * * * //

dimensions      [0 1 0 0 0 0 0];

internalField   nonuniform List<scalar> 
10000
(
5.72578e-05
0.000159446
0.000202842
0.000127159
-5.59087e-05
-0.000228301
-0.000270779
-0.000186515
-8.92547e-05
-8.57152e-05
-0.000189123
-0.000324401
-0.000378191
-0.000247177
9.0905e-05
0.00051404
0.000804546
0.000807563
0.00054327
0.000174677
-8.19003e-05
-9.48064e-06
0.000559195
0.00166138
0.00315741
0.00479244
0.00632316
0.00758458
0.00845537
0.00878981
0.00837985
0.00700204
0.00457552
0.00131
-0.00232099
-0.00577937
-0.00866074
-0.0107613
-0.0120249
-0.0124367
-0.0119444
-0.0104919
-0.00814649
-0.00518586
-0.0020402
0.000855592
0.00318878
0.00482782
0.00580822
0.0062502
0.00625003
0.0058077
0.00482694
0.00318756
0.00085407
-0.00204194
-0.00518769
-0.00814827
-0.0104935
-0.0119457
-0.0124376
-0.0120254
-0.0107614
-0.00866048
-0.0057788
-0.0023202
0.00131089
0.00457641
0.00700283
0.00838052
0.00879034
0.00845578
0.0075849
0.00632343
0.00479267
0.0031576
0.00166151
0.000559238
-9.54347e-06
-8.20661e-05
0.000174439
0.00054301
0.000807331
0.000804374
0.000513934
9.08532e-05
-0.000247193
-0.00037819
-0.000324396
-0.000189118
-8.57139e-05
-8.92659e-05
-0.000186548
-0.00027083
-0.000228349
-5.59291e-05
0.000127178
0.000202888
0.000159492
5.72777e-05
0.000159446
0.000452636
0.000599725
0.000427877
-3.70474e-05
-0.000465106
-0.000523962
-0.000234538
6.76131e-05
7.50441e-05
-0.000245589
-0.000675358
-0.000888675
-0.000585948
0.000308244
0.00146128
0.00226488
0.00228423
0.00157561
0.00059202
-6.59786e-05
0.000213325
0.00191329
0.00514772
0.00951348
0.0142676
0.0186996
0.0223285
0.0248021
0.0256996
0.024419
0.0203088
0.0131333
0.00351225
-0.00715746
-0.0172929
-0.0257129
-0.0318321
-0.0354982
-0.0366715
-0.0351978
-0.0309138
-0.0240248
-0.0153542
-0.00617242
0.00223877
0.00896543
0.0136435
0.0164107
0.0176469
0.0176464
0.0164092
0.0136409
0.00896193
0.00223443
-0.00617736
-0.0153594
-0.0240298
-0.0309183
-0.0352015
-0.0366743
-0.0354998
-0.0318326
-0.0257123
-0.0172914
-0.00715529
0.00351478
0.0131359
0.0203111
0.024421
0.0257013
0.0248033
0.0223295
0.0187004
0.0142682
0.00951399
0.00514806
0.0019134
0.000213158
-6.64087e-05
0.00059141
0.00157495
0.00228364
0.00226444
0.001461
0.000308082
-0.000586033
-0.000888717
-0.000675373
-0.000245583
7.5062e-05
6.76097e-05
-0.000234599
-0.000524077
-0.000465223
-3.70967e-05
0.000427925
0.000599837
0.000452747
0.000159493
0.000202842
0.000599725
0.000845111
0.000676708
0.000110999
-0.000374868
-0.000302397
0.000262883
0.00078463
0.00079369
0.000254698
-0.000490527
-0.000950983
-0.000667134
0.000507118
0.00211722
0.00328673
0.00338299
0.00248651
0.00124124
0.0004998
0.00116175
0.00397707
0.00914371
0.0160408
0.0234972
0.0303877
0.0359512
0.0396372
0.0407978
0.0385001
0.0317248
0.020108
0.00465651
-0.0123765
-0.0284559
-0.0417203
-0.0512847
-0.056953
-0.0586833
-0.0562302
-0.0493378
-0.0383524
-0.0246105
-0.0101584
0.00294682
0.0132652
0.0202874
0.0243381
0.0261089
0.0261081
0.0243358
0.0202835
0.0132599
0.00294026
-0.0101658
-0.0246183
-0.03836
-0.0493448
-0.056236
-0.0586877
-0.0569559
-0.051286
-0.0417198
-0.0284541
-0.0123735
0.00466027
0.020112
0.0317287
0.0385035
0.0408006
0.0396394
0.0359529
0.030389
0.0234981
0.0160415
0.00914415
0.00397719
0.00116151
0.000499238
0.00124047
0.00248568
0.00338225
0.00328615
0.00211681
0.000506815
-0.000667366
-0.000951159
-0.000490635
0.000254674
0.000793737
0.000784682
0.000262866
-0.0003025
-0.000374996
0.000110937
0.000676752
0.000845227
0.000599838
0.000202888
0.000127159
0.000427877
0.000676708
0.00055378
3.62974e-05
-0.000336644
-2.47776e-05
0.000838717
0.00156275
0.00158356
0.00089186
-8.59924e-05
-0.000777234
-0.000634654
0.000564424
0.00235586
0.00376231
0.00406879
0.00336607
0.00235577
0.00196504
0.00323798
0.00712599
0.0139261
0.0228686
0.0324381
0.0411622
0.0480436
0.0523763
0.0533522
0.0498052
0.0404495
0.0248518
0.00438687
-0.0179329
-0.038764
-0.0557207
-0.0677575
-0.0747311
-0.0766492
-0.0732048
-0.0640698
-0.0497226
-0.0319493
-0.0134625
0.0030298
0.0156887
0.0239897
0.0285584
0.0304682
0.0304673
0.0285556
0.023985
0.0156823
0.00302193
-0.0134714
-0.0319587
-0.0497319
-0.0640784
-0.0732123
-0.0766552
-0.0747354
-0.0677599
-0.055721
-0.0387624
-0.0179297
0.00439132
0.0248569
0.0404546
0.04981
0.0533563
0.0523795
0.048046
0.041164
0.0324394
0.0228694
0.0139266
0.00712607
0.00323769
0.00196442
0.00235495
0.00336521
0.00406801
0.00376166
0.00235532
0.000563936
-0.000635103
-0.000777617
-8.62545e-05
0.000891763
0.00158361
0.00156286
0.000838767
-2.48314e-05
-0.000336755
3.62164e-05
0.000553773
0.000676751
0.000427925
0.000127178
-5.59087e-05
-3.70474e-05
0.000110999
3.62974e-05
-0.000355185
-0.000546837
-1.08364e-05
0.00105398
0.0018822
0.00191196
0.00119912
0.000203436
-0.000535468
-0.000492854
0.000605664
0.00238507
0.00393767
0.00459161
0.00444166
0.00411995
0.00445734
0.00650376
0.0113499
0.0194139
0.0298561
0.0409057
0.0508026
0.0583452
0.0627072
0.0629883
0.0579001
0.0460252
0.0269584
0.00244179
-0.0238588
-0.0479653
-0.0671634
-0.080426
-0.0877963
-0.0894153
-0.0849647
-0.0740664
-0.0573038
-0.0368186
-0.0158446
0.00242627
0.0159225
0.0242514
0.0284493
0.0300385
0.0300375
0.0284463
0.0242466
0.0159159
0.00241814
-0.0158538
-0.0368284
-0.0573137
-0.0740759
-0.0849732
-0.0894226
-0.087802
-0.0804298
-0.0671651
-0.0479647
-0.023856
0.00244631
0.026964
0.0460312
0.0579059
0.0629935
0.0627116
0.0583486
0.0508051
0.0409074
0.0298572
0.0194145
0.01135
0.00650341
0.00445669
0.00411912
0.00444079
0.0045908
0.00393694
0.00238439
0.000604991
-0.000493511
-0.000536049
0.000203015
0.00119892
0.00191196
0.00188229
0.00105404
-1.0868e-05
-0.000546939
-0.000355293
3.62147e-05
0.000110935
-3.70974e-05
-5.5929e-05
-0.000228301
-0.000465106
-0.000374868
-0.000336644
-0.000546837
-0.000578762
3.69926e-05
0.00107209
0.00179923
0.00177777
0.00117861
0.000443011
-4.93207e-05
6.94683e-05
0.00106483
0.00270994
0.00430577
0.00533664
0.00590888
0.00649728
0.00771522
0.0105182
0.0160917
0.0250009
0.0364127
0.0483791
0.058892
0.0665532
0.0704294
0.0695769
0.0626865
0.0483523
0.0263172
-0.00128994
-0.0302533
-0.0561431
-0.07612
-0.0893582
-0.0962262
-0.0970907
-0.0916779
-0.0795733
-0.0614177
-0.0395982
-0.0177137
0.000740028
0.0136317
0.0208271
0.0238447
0.0246963
0.0246954
0.0238421
0.0208228
0.0136258
0.000732622
-0.0177223
-0.0396075
-0.0614273
-0.0795828
-0.091687
-0.0970989
-0.0962332
-0.0893635
-0.0761232
-0.0561439
-0.0302516
-0.00128603
0.0263227
0.0483586
0.062693
0.069583
0.0704347
0.0665575
0.0588953
0.0483815
0.0364142
0.0250017
0.0160919
0.0105179
0.00771458
0.00649644
0.00590797
0.00533577
0.00430496
0.00270915
0.00106404
6.86933e-05
-5.00143e-05
0.000442477
0.00117828
0.00177764
0.00179921
0.00107208
3.69408e-05
-0.000578853
-0.000546941
-0.000336758
-0.000374998
-0.000465224
-0.000228349
-0.000270779
-0.000523962
-0.000302397
-2.47776e-05
-1.08364e-05
3.69926e-05
0.000515631
0.00122604
0.00159812
0.00142751
0.00104847
0.000842104
0.000918335
0.00135915
0.00233889
0.00379127
0.00531236
0.006624
0.00786184
0.0093059
0.0112962
0.0146422
0.0205983
0.0298986
0.0417843
0.0542
0.0649208
0.0723482
0.0754372
0.0732232
0.0644454
0.0478261
0.0233626
-0.00641461
-0.036846
-0.0632299
-0.0827859
-0.0950359
-0.100772
-0.100649
-0.0944669
-0.0817639
-0.0631743
-0.0412217
-0.0197307
-0.00234633
0.00887566
0.014132
0.0154334
0.0152767
0.0152761
0.0154314
0.0141288
0.00887108
-0.00235221
-0.0197377
-0.0412297
-0.063183
-0.0817729
-0.0944759
-0.100658
-0.10078
-0.0950424
-0.0827906
-0.0632323
-0.0368458
-0.00641199
0.0233671
0.0478319
0.0644518
0.0732295
0.0754431
0.0723534
0.0649251
0.0542032
0.0417865
0.0298999
0.0205989
0.0146421
0.0112957
0.00930516
0.00786096
0.0066231
0.00531148
0.00379041
0.00233805
0.00135834
0.000917604
0.000841494
0.00104801
0.0014272
0.00159792
0.00122591
0.000515541
3.69399e-05
-1.08701e-05
-2.4834e-05
-0.000302502
-0.000524078
-0.00027083
-0.000186515
-0.000234538
0.000262883
0.000838717
0.00105398
0.00107209
0.00122604
0.00139811
0.00125618
0.000898208
0.000842653
0.00138337
0.00229784
0.00329916
0.00439988
0.00567507
0.00704826
0.00851933
0.0102703
0.0123864
0.0149271
0.0185347
0.0245059
0.0337465
0.0456245
0.0580531
0.0686429
0.0756116
0.0778053
0.0742458
0.0637527
0.0452401
0.0190171
-0.0120049
-0.042848
-0.0687153
-0.0870363
-0.0977677
-0.102157
-0.101142
-0.0945778
-0.0819097
-0.0636914
-0.0424861
-0.0222381
-0.00663984
0.00239552
0.00539722
0.00481617
0.00358052
0.0035802
0.00481517
0.00539541
0.00239274
-0.00664371
-0.0222431
-0.0424922
-0.0636985
-0.0819176
-0.0945862
-0.10115
-0.102165
-0.097775
-0.0870422
-0.0687192
-0.0428496
-0.0120041
0.01902
0.0452446
0.0637582
0.0742517
0.0778112
0.0756173
0.0686479
0.0580572
0.0456277
0.0337486
0.0245071
0.0185352
0.0149271
0.012386
0.0102695
0.00851847
0.00704733
0.00567414
0.00439898
0.00329832
0.00229707
0.00138267
0.000842033
0.000897677
0.00125576
0.00139782
0.00122591
0.00107208
0.00105404
0.000838767
0.000262867
-0.000234598
-0.000186547
-8.92547e-05
6.76131e-05
0.00078463
0.00156275
0.0018822
0.00179923
0.00159812
0.00125618
0.000680857
0.000250635
0.000637377
0.00203354
0.00389021
0.00555064
0.00684436
0.00796708
0.00916642
0.0107269
0.0128862
0.0155508
0.0185098
0.0222165
0.0279556
0.0367668
0.0481728
0.0601414
0.0702129
0.076487
0.0777356
0.0729814
0.06113
0.0412995
0.0141069
-0.0172252
-0.0475499
-0.0721474
-0.0887739
-0.0978524
-0.101051
-0.0995241
-0.0931081
-0.0810824
-0.0638468
-0.0439227
-0.0252974
-0.0116657
-0.00480362
-0.00391095
-0.00619478
-0.00839146
-0.00839145
-0.00619485
-0.0039113
-0.00480453
-0.0116675
-0.0253003
-0.0439268
-0.0638521
-0.0810887
-0.0931152
-0.0995317
-0.101058
-0.0978598
-0.0887805
-0.0721526
-0.0475532
-0.0172264
0.0141077
0.041302
0.0611338
0.0729861
0.0777409
0.0764926
0.0702184
0.0601463
0.0481768
0.0367699
0.0279578
0.0222179
0.0185105
0.0155509
0.0128859
0.0107262
0.00916549
0.00796607
0.00684336
0.0055497
0.00388935
0.00203273
0.0006366
0.000249913
0.000680252
0.00125576
0.00159792
0.00179921
0.00188229
0.00156286
0.000784686
6.76128e-05
-8.92645e-05
-8.57152e-05
7.50441e-05
0.00079369
0.00158356
0.00191196
0.00177777
0.00142751
0.000898208
0.000250635
2.79699e-05
0.000967664
0.00315712
0.00579859
0.0079559
0.00931872
0.0101987
0.0111474
0.0127216
0.0152218
0.0184007
0.0217934
0.0256274
0.0310817
0.0392413
0.0497749
0.060791
0.0698881
0.0751614
0.0753816
0.0695982
0.0567946
0.0362673
0.00888994
-0.0219097
-0.0509728
-0.0738059
-0.0885696
-0.0961419
-0.0985338
-0.0970115
-0.0912889
-0.080407
-0.0645499
-0.0461282
-0.0291145
-0.0172006
-0.0120858
-0.0128036
-0.0163465
-0.019241
-0.0192408
-0.0163459
-0.0128029
-0.0120852
-0.0172006
-0.0291154
-0.0461302
-0.0645532
-0.0804114
-0.0912942
-0.0970177
-0.0985405
-0.0961487
-0.0885762
-0.0738118
-0.0509775
-0.0219128
0.00888854
0.0362675
0.0567964
0.0696012
0.0753858
0.0751664
0.0698934
0.0607962
0.0497796
0.0392454
0.031085
0.0256299
0.0217951
0.0184016
0.015222
0.0127212
0.0111465
0.0101977
0.00931763
0.00795485
0.00579761
0.0031562
0.000966774
2.71294e-05
0.000249913
0.000897676
0.00142719
0.00177764
0.00191196
0.00158362
0.000793741
7.50653e-05
-8.57128e-05
-0.000189123
-0.000245589
0.000254698
0.00089186
0.00119912
0.00117861
0.00104847
0.000842653
0.000637377
0.000967664
0.00251507
0.0052694
0.00831326
0.0105844
0.0117149
0.0121289
0.0126404
0.0140528
0.0167435
0.0203597
0.0242201
0.0282955
0.0335478
0.0409828
0.0503698
0.0600259
0.0677428
0.0717444
0.0708846
0.064263
0.050915
0.0302625
0.00335519
-0.0262918
-0.0536425
-0.0745281
-0.0875372
-0.0939523
-0.0960266
-0.0950197
-0.090432
-0.0810138
-0.0666944
-0.0497178
-0.0339951
-0.0232296
-0.0191316
-0.0207009
-0.0248654
-0.0280894
-0.0280891
-0.0248644
-0.0206996
-0.0191302
-0.0232284
-0.0339946
-0.0497182
-0.0666958
-0.0810162
-0.0904353
-0.0950239
-0.0960316
-0.0939579
-0.0875433
-0.0745341
-0.053648
-0.0262965
0.00335177
0.0302604
0.0509145
0.0642639
0.0708871
0.0717481
0.0677474
0.0600308
0.0503748
0.0409874
0.0335521
0.0282991
0.024223
0.0203617
0.0167446
0.014053
0.01264
0.012128
0.0117139
0.0105833
0.00831221
0.0052684
0.00251412
0.000966774
0.0006366
0.000842032
0.001048
0.00117828
0.00119892
0.000891765
0.000254676
-0.000245581
-0.000189117
-0.000324401
-0.000675358
-0.000490527
-8.59924e-05
0.000203436
0.000443011
0.000842104
0.00138337
0.00203354
0.00315712
0.0052694
0.0082849
0.0113129
0.0133289
0.0139792
0.013761
0.0136642
0.0146827
0.0172889
0.0211049
0.0253169
0.0296521
0.0347726
0.0414835
0.0495911
0.0576592
0.0637841
0.0664322
0.0646056
0.0574524
0.0440095
0.0237465
-0.0022085
-0.0303649
-0.0559018
-0.0750073
-0.0866544
-0.0924313
-0.0947137
-0.0946493
-0.0914654
-0.0836073
-0.0707384
-0.054901
-0.03991
-0.0294982
-0.0254787
-0.0269623
-0.0309828
-0.0341029
-0.0341026
-0.0309819
-0.026961
-0.025477
-0.0294965
-0.0399085
-0.0548999
-0.0707381
-0.0836076
-0.0914666
-0.0946514
-0.0947167
-0.0924354
-0.0866594
-0.0750129
-0.0559077
-0.0303705
-0.00221353
0.0237424
0.0440067
0.0574512
0.064606
0.0664342
0.0637874
0.0576634
0.0495958
0.0414884
0.0347774
0.0296566
0.0253208
0.021108
0.017291
0.0146838
0.0136644
0.0137606
0.0139784
0.0133278
0.0113118
0.00828385
0.0052684
0.00315621
0.00203273
0.00138267
0.000841492
0.000442475
0.000203013
-8.62563e-05
-0.000490636
-0.000675374
-0.000324396
-0.000378191
-0.000888675
-0.000950983
-0.000777234
-0.000535468
-4.93207e-05
0.000918335
0.00229784
0.00389021
0.00579859
0.00831326
0.0113129
0.0140644
0.0157116
0.0159411
0.0152243
0.0145763
0.0150777
0.0172969
0.020931
0.0251671
0.0295703
0.0344863
0.0404406
0.0472166
0.053638
0.0581731
0.0596017
0.0571007
0.049837
0.0367783
0.0173495
-0.00734602
-0.0339374
-0.0578701
-0.0756614
-0.0865641
-0.0923264
-0.0953106
-0.096471
-0.094748
-0.0883092
-0.0765748
-0.0613799
-0.0464276
-0.0354922
-0.0305606
-0.0309913
-0.0340936
-0.0366798
-0.0366796
-0.0340929
-0.0309901
-0.030559
-0.0354902
-0.0464255
-0.0613779
-0.0765731
-0.0883079
-0.0947474
-0.0964711
-0.0953117
-0.0923287
-0.0865677
-0.0756661
-0.0578757
-0.0339434
-0.00735201
0.017344
0.0367737
0.0498338
0.0570991
0.0596017
0.0581747
0.0536408
0.0472205
0.0404452
0.0344913
0.0295753
0.0251719
0.0209351
0.0173
0.0150798
0.0145774
0.0152245
0.0159407
0.0157108
0.0140634
0.0113118
0.00831221
0.00579762
0.00388935
0.00229707
0.000917602
-5.00172e-05
-0.000536053
-0.000777622
-0.000951163
-0.000888719
-0.000378191
-0.000247177
-0.000585948
-0.000667134
-0.000634654
-0.000492854
6.94683e-05
0.00135915
0.00329916
0.00555064
0.0079559
0.0105844
0.0133289
0.0157116
0.0171281
0.0172923
0.0165169
0.0156532
0.0157207
0.0173498
0.0204002
0.0242131
0.028325
0.0328163
0.0379075
0.0433182
0.0481232
0.0511854
0.0516182
0.0487671
0.0417799
0.0294915
0.0112015
-0.0120988
-0.0372304
-0.0599287
-0.0769856
-0.0878002
-0.094111
-0.0981332
-0.10058
-0.100137
-0.0947601
-0.0836829
-0.06856
-0.052985
-0.0407724
-0.0341172
-0.0327201
-0.0342973
-0.0360191
-0.0360189
-0.0342968
-0.0327191
-0.0341157
-0.0407704
-0.0529826
-0.0685575
-0.0836804
-0.0947578
-0.100135
-0.100578
-0.0981327
-0.0941116
-0.0878021
-0.076989
-0.0599333
-0.037236
-0.0121049
0.0111954
0.0294859
0.0417752
0.0487637
0.0516162
0.0511849
0.0481242
0.0433206
0.0379112
0.0328209
0.0283301
0.0242183
0.0204051
0.017354
0.0157239
0.0156554
0.0165181
0.0172926
0.0171278
0.0157108
0.0133278
0.0105833
0.00795485
0.0055497
0.00329832
0.00135834
6.86907e-05
-0.000493516
-0.000635109
-0.000667371
-0.000586035
-0.000247193
9.0905e-05
0.000308244
0.000507118
0.000564424
0.000605664
0.00106483
0.00233889
0.00439988
0.00684436
0.00931872
0.0117149
0.0139792
0.0159411
0.0172923
0.0177606
0.0173995
0.0167341
0.0165726
0.0175399
0.0197005
0.022676
0.026114
0.0299148
0.0340079
0.0380254
0.0412677
0.0429734
0.0425702
0.0395508
0.0330248
0.0216727
0.00463171
-0.017268
-0.041085
-0.0628602
-0.0796152
-0.0907771
-0.0979255
-0.103024
-0.106536
-0.106966
-0.102154
-0.0912215
-0.0756911
-0.0590538
-0.0451443
-0.0363543
-0.0327557
-0.0325256
-0.0332343
-0.0332341
-0.0325252
-0.0327549
-0.036353
-0.0451426
-0.0590517
-0.0756887
-0.0912189
-0.102151
-0.106963
-0.106534
-0.103022
-0.0979244
-0.0907773
-0.0796169
-0.0628634
-0.0410895
-0.0172735
0.00462574
0.0216666
0.033019
0.0395458
0.0425663
0.0429708
0.0412666
0.038026
0.0340101
0.0299184
0.0261187
0.0226814
0.0197059
0.0175449
0.0165769
0.0167375
0.0174019
0.017762
0.0172926
0.0159407
0.0139784
0.0117139
0.00931763
0.00684336
0.00439898
0.00233805
0.00106404
0.000604989
0.000563933
0.000506812
0.000308081
9.08542e-05
0.00051404
0.00146128
0.00211722
0.00235586
0.00238507
0.00270994
0.00379127
0.00567507
0.00796708
0.0101987
0.0121289
0.013761
0.0152243
0.0165169
0.0173995
0.0176522
0.0174058
0.0171584
0.0174521
0.0185447
0.0204006
0.0228788
0.0257825
0.028782
0.0314076
0.0331474
0.0335684
0.0323692
0.029167
0.023046
0.0125653
-0.0032803
-0.0238268
-0.0463926
-0.0673424
-0.0839071
-0.095468
-0.103348
-0.109205
-0.113291
-0.114027
-0.109249
-0.0980589
-0.0818839
-0.0641055
-0.0485352
-0.0377085
-0.0320249
-0.0300887
-0.029843
-0.0298429
-0.0300883
-0.0320243
-0.0377076
-0.048534
-0.064104
-0.0818821
-0.0980568
-0.109247
-0.114024
-0.113288
-0.109202
-0.103345
-0.0954665
-0.0839069
-0.0673437
-0.0463955
-0.023831
-0.00328547
0.0125594
0.0230398
0.0291609
0.0323636
0.0335637
0.0331441
0.0314061
0.0287824
0.0257847
0.0228825
0.0204055
0.0185502
0.0174575
0.0171635
0.0174103
0.0176558
0.0174019
0.0165181
0.0152245
0.0137606
0.012128
0.0101977
0.00796606
0.00567414
0.00379041
0.00270915
0.0023844
0.00235532
0.00211681
0.001461
0.000513936
0.000804546
0.00226488
0.00328673
0.00376231
0.00393767
0.00430577
0.00531236
0.00704826
0.00916642
0.0111474
0.0126404
0.0136642
0.0145763
0.0156532
0.0167341
0.0174058
0.0174534
0.0170533
0.0166113
0.0165292
0.0171087
0.0184656
0.0203683
0.0222648
0.0235753
0.0239281
0.0231523
0.021157
0.0176601
0.0117544
0.00194953
-0.0128385
-0.0320869
-0.0533807
-0.0734207
-0.0896397
-0.101332
-0.109516
-0.115546
-0.119528
-0.11993
-0.114714
-0.103045
-0.0862791
-0.0676511
-0.0508782
-0.0385547
-0.0313097
-0.0280757
-0.0270963
-0.0270963
-0.0280755
-0.0313094
-0.0385543
-0.0508776
-0.0676503
-0.086278
-0.103043
-0.114712
-0.119927
-0.119525
-0.115542
-0.109513
-0.101329
-0.0896379
-0.0734203
-0.0533818
-0.0320894
-0.0128424
0.00194442
0.0117484
0.0176535
0.0211504
0.0231462
0.0239231
0.023572
0.0222634
0.0203689
0.0184679
0.0171124
0.016534
0.0166166
0.0170588
0.0174586
0.0174103
0.0167375
0.0156554
0.0145774
0.0136644
0.01264
0.0111465
0.00916548
0.00704733
0.00531149
0.00430496
0.00393695
0.00376167
0.00328616
0.00226445
0.000804375
0.000807563
0.00228423
0.00338299
0.00406879
0.00459161
0.00533664
0.006624
0.00851933
0.0107269
0.0127216
0.0140528
0.0146827
0.0150777
0.0157207
0.0165726
0.0171584
0.0170533
0.0161833
0.0148069
0.0134101
0.0125852
0.0127107
0.0135717
0.0144422
0.0146327
0.013855
0.0121119
0.00943868
0.00561554
-0.000223513
-0.00953411
-0.0234028
-0.0414161
-0.0614257
-0.0804668
-0.0961501
-0.107642
-0.115627
-0.121173
-0.124341
-0.123785
-0.11774
-0.10552
-0.0884159
-0.0694514
-0.0521567
-0.0390818
-0.0309693
-0.0269645
-0.0255311
-0.0255312
-0.0269645
-0.0309693
-0.0390817
-0.0521565
-0.0694511
-0.0884154
-0.105519
-0.117738
-0.123783
-0.124338
-0.12117
-0.115624
-0.107639
-0.0961472
-0.0804649
-0.0614251
-0.0414169
-0.0234052
-0.00953795
-0.000228677
0.0056094
0.00943203
0.0121053
0.0138491
0.014628
0.014439
0.0135703
0.0127112
0.0125873
0.0134135
0.0148114
0.0161885
0.0170588
0.0171635
0.0165769
0.0157239
0.0150798
0.0146837
0.014053
0.0127212
0.0107262
0.00851847
0.00662311
0.00533578
0.0045908
0.00406802
0.00338225
0.00228365
0.000807331
0.00054327
0.00157561
0.00248651
0.00336607
0.00444166
0.00590888
0.00786184
0.0102703
0.0128862
0.0152218
0.0167435
0.0172889
0.0172969
0.0173498
0.0175399
0.0174521
0.0166113
0.0148069
0.0121735
0.00923213
0.00680558
0.00552862
0.00526621
0.00519955
0.00455464
0.00306817
0.000802182
-0.00219739
-0.00615432
-0.0118797
-0.0207225
-0.033707
-0.0505106
-0.06926
-0.0873146
-0.102418
-0.113544
-0.120998
-0.125571
-0.127362
-0.125356
-0.118196
-0.105432
-0.0882867
-0.0695045
-0.0523299
-0.0391692
-0.0307843
-0.0264495
-0.0247932
-0.0247933
-0.0264496
-0.0307844
-0.0391692
-0.0523298
-0.0695043
-0.0882864
-0.105431
-0.118195
-0.125354
-0.127359
-0.125568
-0.120994
-0.113541
-0.102414
-0.0873119
-0.0692581
-0.0505099
-0.0337077
-0.0207248
-0.0118834
-0.00615929
-0.00220324
0.000795914
0.00306199
0.00454904
0.00519497
0.00526299
0.00552696
0.00680558
0.00923376
0.0121766
0.0148114
0.0166166
0.0174575
0.0175449
0.017354
0.0173
0.017291
0.0167446
0.015222
0.0128859
0.0102696
0.00786097
0.00590798
0.00444079
0.00336521
0.00248568
0.00157495
0.000543008
0.000174677
0.00059202
0.00124124
0.00235577
0.00411995
0.00649728
0.0093059
0.0123864
0.0155508
0.0184007
0.0203597
0.0211049
0.020931
0.0204002
0.0197005
0.0185447
0.0165292
0.0134101
0.00923213
0.00451063
0.000233398
-0.00271958
-0.00431833
-0.0053445
-0.00658231
-0.00830759
-0.0105223
-0.0133097
-0.0169886
-0.0223225
-0.0304997
-0.042433
-0.0578924
-0.0753085
-0.0923733
-0.106925
-0.117683
-0.124508
-0.127903
-0.128053
-0.12437
-0.116
-0.102784
-0.08588
-0.0676995
-0.0511212
-0.038333
-0.0300633
-0.0256789
-0.0239468
-0.0239469
-0.0256791
-0.0300635
-0.0383331
-0.0511211
-0.0676992
-0.0858795
-0.102784
-0.115999
-0.124369
-0.128052
-0.127901
-0.124506
-0.11768
-0.106922
-0.0923702
-0.0753059
-0.0578905
-0.0424322
-0.0305004
-0.0223246
-0.0169919
-0.0133143
-0.0105277
-0.00831345
-0.00658827
-0.00535013
-0.00432315
-0.00272318
0.000231352
0.00451037
0.00923376
0.0134135
0.016534
0.0185502
0.0197059
0.0204051
0.0209351
0.021108
0.0203617
0.0184016
0.0155509
0.012386
0.00930516
0.00649644
0.00411912
0.00235495
0.00124047
0.000591409
0.000174436
-8.19003e-05
-6.59786e-05
0.0004998
0.00196504
0.00445734
0.00771522
0.0112962
0.0149271
0.0185098
0.0217934
0.0242201
0.0253169
0.0251671
0.0242131
0.022676
0.0204006
0.0171087
0.0125852
0.00680558
0.000233398
-0.00606115
-0.010985
-0.0142562
-0.0164508
-0.0182308
-0.0198737
-0.0215443
-0.0235914
-0.0265266
-0.031084
-0.038244
-0.0487625
-0.0625085
-0.0782648
-0.0940996
-0.107958
-0.118283
-0.124463
-0.12669
-0.125242
-0.119982
-0.110585
-0.097185
-0.0808682
-0.0636911
-0.048123
-0.0360901
-0.0282595
-0.0240684
-0.0223941
-0.0223943
-0.0240687
-0.0282598
-0.0360904
-0.048123
-0.0636909
-0.0808678
-0.0971845
-0.110584
-0.119982
-0.125241
-0.126688
-0.124461
-0.118281
-0.107956
-0.0940967
-0.0782617
-0.0625058
-0.0487606
-0.0382432
-0.0310844
-0.0265283
-0.0235944
-0.0215485
-0.0198788
-0.0182367
-0.0164569
-0.0142621
-0.0109901
-0.00606496
0.000231352
0.00680558
0.0125873
0.0171124
0.0204055
0.0226814
0.0242184
0.0251719
0.0253208
0.024223
0.0217951
0.0185105
0.0149271
0.0112957
0.00771457
0.00445668
0.00196442
0.000499236
-6.64113e-05
-8.20697e-05
-9.48064e-06
0.000213325
0.00116175
0.00323798
0.00650376
0.0105182
0.0146422
0.0185347
0.0222165
0.0256274
0.0282955
0.0296521
0.0295703
0.028325
0.026114
0.0228788
0.0184656
0.0127107
0.00552862
-0.00271958
-0.010985
-0.0180349
-0.0232876
-0.0269519
-0.0294033
-0.0308574
-0.0316931
-0.0326316
-0.0344661
-0.0379214
-0.0437255
-0.052422
-0.0639653
-0.0775296
-0.0916218
-0.104355
-0.113948
-0.119354
-0.120465
-0.117644
-0.111169
-0.101186
-0.088078
-0.0728378
-0.0571706
-0.0431378
-0.032386
-0.0254827
-0.0218768
-0.0204835
-0.0204836
-0.0218773
-0.0254833
-0.0323867
-0.0431383
-0.0571709
-0.0728379
-0.0880778
-0.101185
-0.111168
-0.117643
-0.120464
-0.119353
-0.113946
-0.104353
-0.0916193
-0.0775266
-0.0639623
-0.0524194
-0.0437237
-0.0379206
-0.0344665
-0.0326331
-0.0316959
-0.0308615
-0.0294085
-0.026958
-0.0232941
-0.018041
-0.0109901
-0.00272318
0.00552697
0.0127112
0.0184679
0.0228826
0.0261187
0.0283302
0.0295754
0.0296566
0.0282991
0.0256299
0.0222179
0.0185352
0.0146421
0.0105179
0.00650341
0.00323769
0.00116151
0.000213155
-9.54682e-06
0.000559195
0.00191329
0.00397707
0.00712599
0.0113499
0.0160917
0.0205983
0.0245059
0.0279556
0.0310817
0.0335478
0.0347726
0.0344863
0.0328163
0.0299148
0.0257825
0.0203683
0.0135717
0.00526621
-0.00431833
-0.0142562
-0.0232876
-0.0305528
-0.035795
-0.0389652
-0.0401375
-0.0399171
-0.039469
-0.0399421
-0.0420785
-0.0463219
-0.0529408
-0.0619303
-0.0728521
-0.0846865
-0.0957818
-0.104226
-0.108634
-0.108659
-0.104741
-0.0975162
-0.0875077
-0.0752632
-0.0616518
-0.0480554
-0.0361696
-0.0273653
-0.0220517
-0.0195809
-0.0187841
-0.0187844
-0.0195816
-0.0220527
-0.0273665
-0.0361708
-0.0480564
-0.0616525
-0.0752633
-0.0875073
-0.0975154
-0.10474
-0.108658
-0.108634
-0.104225
-0.0957804
-0.0846845
-0.0728495
-0.0619274
-0.052938
-0.0463195
-0.0420769
-0.0399413
-0.0394692
-0.0399184
-0.0401402
-0.0389693
-0.0358004
-0.030559
-0.0232941
-0.0142621
-0.00432315
0.005263
0.0135703
0.0203689
0.0257847
0.0299184
0.0328209
0.0344913
0.0347774
0.0335521
0.031085
0.0279578
0.0245071
0.0205989
0.0160919
0.01135
0.00712607
0.00397719
0.00191339
0.000559235
0.00166138
0.00514772
0.00914371
0.0139261
0.0194139
0.0250009
0.0298986
0.0337465
0.0367668
0.0392413
0.0409828
0.0414835
0.0404406
0.0379075
0.0340079
0.028782
0.0222648
0.0144422
0.00519955
-0.0053445
-0.0164508
-0.0269519
-0.035795
-0.0422548
-0.0458005
-0.0463212
-0.0446503
-0.0424388
-0.0412475
-0.0418764
-0.044481
-0.0490087
-0.0554328
-0.0636506
-0.07309
-0.0823525
-0.0894677
-0.0928105
-0.0918651
-0.0871623
-0.0796364
-0.0700983
-0.0591754
-0.0475856
-0.0364315
-0.0271165
-0.0207667
-0.0175858
-0.016719
-0.0167925
-0.0167928
-0.0167198
-0.0175871
-0.0207683
-0.0271181
-0.0364329
-0.0475866
-0.0591756
-0.0700978
-0.0796353
-0.0871611
-0.091864
-0.0928097
-0.0894671
-0.0823517
-0.0730888
-0.0636488
-0.0554306
-0.0490063
-0.0444788
-0.0418744
-0.0412459
-0.0424378
-0.0446501
-0.0463222
-0.0458031
-0.0422589
-0.0358004
-0.026958
-0.0164569
-0.00535012
0.00519498
0.014439
0.0222634
0.0287824
0.0340101
0.0379112
0.0404452
0.0414884
0.0409874
0.0392454
0.0367699
0.0337486
0.0298999
0.0250017
0.0194145
0.0139266
0.00914415
0.00514806
0.00166151
0.00315741
0.00951348
0.0160408
0.0228686
0.0298561
0.0364127
0.0417843
0.0456245
0.0481728
0.0497749
0.0503698
0.0495911
0.0472166
0.0433182
0.0380254
0.0314076
0.0235753
0.0146327
0.00455464
-0.00658231
-0.0182308
-0.0294033
-0.0389652
-0.0458005
-0.048935
-0.0480896
-0.0443354
-0.0398229
-0.0365575
-0.0354446
-0.0363871
-0.039005
-0.0432027
-0.0491382
-0.0566064
-0.0644083
-0.0705158
-0.0731073
-0.0715407
-0.0664358
-0.058986
-0.0502265
-0.0408098
-0.0312941
-0.0225554
-0.0157892
-0.0119359
-0.0109943
-0.0118563
-0.0128828
-0.0128831
-0.0118572
-0.0109956
-0.0119374
-0.0157907
-0.0225566
-0.0312948
-0.0408098
-0.0502258
-0.0589849
-0.0664346
-0.0715398
-0.0731067
-0.0705155
-0.0644081
-0.0566061
-0.0491374
-0.0432016
-0.0390036
-0.0363854
-0.0354427
-0.0365554
-0.0398208
-0.0443336
-0.0480889
-0.0489358
-0.0458031
-0.0389693
-0.0294085
-0.0182367
-0.00658827
0.00454905
0.014628
0.023572
0.0314061
0.038026
0.0433207
0.0472205
0.0495958
0.0503748
0.0497796
0.0481768
0.0456276
0.0417865
0.0364142
0.0298572
0.0228694
0.0160415
0.00951399
0.0031576
0.00479244
0.0142676
0.0234972
0.0324381
0.0409057
0.0483791
0.0542
0.0580531
0.0601414
0.060791
0.0600259
0.0576592
0.053638
0.0481232
0.0412677
0.0331474
0.0239281
0.013855
0.00306817
-0.00830759
-0.0198737
-0.0308574
-0.0401375
-0.0463212
-0.0480896
-0.0450553
-0.0385372
-0.0311669
-0.0253921
-0.0222688
-0.0215173
-0.0224762
-0.0249697
-0.0293463
-0.03566
-0.0428057
-0.0486338
-0.0511077
-0.0494563
-0.0443718
-0.0372761
-0.0293978
-0.021402
-0.0137044
-0.00700765
-0.00237138
-0.000617325
-0.00158739
-0.00394942
-0.00581274
-0.00581306
-0.00395027
-0.00158854
-0.000618485
-0.0023723
-0.00700815
-0.0137044
-0.0214015
-0.029397
-0.037275
-0.0443708
-0.0494555
-0.0511073
-0.0486339
-0.0428061
-0.0356604
-0.0293466
-0.0249697
-0.0224758
-0.0215163
-0.0222672
-0.0253897
-0.031164
-0.0385343
-0.0450531
-0.0480889
-0.0463222
-0.0401402
-0.0308615
-0.0198789
-0.00831346
0.00306199
0.0138491
0.0239231
0.0331441
0.0412666
0.0481242
0.0536408
0.0576634
0.0600308
0.0607962
0.0601463
0.0580572
0.0542032
0.0483815
0.0409074
0.0324394
0.0234981
0.0142682
0.00479267
0.00632316
0.0186996
0.0303877
0.0411622
0.0508026
0.058892
0.0649208
0.0686429
0.0702129
0.0698881
0.0677428
0.0637841
0.0581731
0.0511854
0.0429734
0.0335684
0.0231523
0.0121119
0.000802182
-0.0105223
-0.0215443
-0.0316931
-0.0399171
-0.0446503
-0.0443354
-0.0385372
-0.0288129
-0.0182169
-0.00959951
-0.00420162
-0.00165865
-0.00112153
-0.00236003
-0.00585511
-0.0118064
-0.0190868
-0.0253493
-0.0283151
-0.0270748
-0.0223734
-0.0158283
-0.0088405
-0.00209237
0.00411079
0.00919397
0.0121824
0.0123206
0.00986762
0.00632472
0.00379364
0.00379334
0.00632396
0.0098667
0.0123199
0.0121821
0.00919419
0.00411138
-0.00209157
-0.00883965
-0.0158274
-0.0223727
-0.0270742
-0.0283148
-0.0253494
-0.0190873
-0.0118072
-0.00585602
-0.00236081
-0.00112193
-0.0016584
-0.00420048
-0.00959735
-0.0182139
-0.0288096
-0.0385343
-0.0443336
-0.0446501
-0.0399184
-0.0316959
-0.0215485
-0.0105277
0.000795903
0.0121053
0.0231462
0.0335637
0.0429708
0.0511849
0.0581747
0.0637874
0.0677474
0.0698934
0.0702184
0.0686479
0.0649251
0.0588953
0.0508051
0.041164
0.030389
0.0187004
0.00632343
0.00758458
0.0223285
0.0359512
0.0480436
0.0583452
0.0665532
0.0723482
0.0756116
0.076487
0.0751614
0.0717444
0.0664322
0.0596017
0.0516182
0.0425702
0.0323692
0.021157
0.00943868
-0.00219739
-0.0133097
-0.0235914
-0.0326316
-0.039469
-0.0424388
-0.0398229
-0.0311669
-0.0182169
-0.0043491
0.00726073
0.0151655