/*--------------------------------*- C++ -*----------------------------------*\
  =========                 |
  \\      /  F ield         | OpenFOAM: The Open Source CFD Toolbox
   \\    /   O peration     | Website:  https://openfoam.org
    \\  /    A nd           | Version:  10
     \\/     M anipulation  |
\*---------------------------------------------------------------------------*/
FoamFile
{
    format      ascii;
    class       volScalarField;
    location    "93";
    object      h_0;
}
// * * * * * * * * * * * * * * * * * * * * * * * * * * * * * * * * * * * * * //

dimensions      [0 1 0 0 0 0 0];

internalField   nonuniform List<scalar> 
10000
(
5.92369e-05
0.000163993
0.00020714
0.000129339
-5.56323e-05
-0.000228277
-0.000269622
-0.000184505
-8.82913e-05
-8.76831e-05
-0.000193569
-0.000327871
-0.000376801
-0.000239939
0.000101182
0.000522471
0.000806622
0.000800816
0.000528024
0.000154077
-0.00010321
-2.76226e-05
0.000546061
0.00165304
0.003152
0.00478752
0.00631767
0.0075798
0.00845341
0.00879105
0.0083824
0.00700365
0.00457614
0.00131289
-0.00231051
-0.00575688
-0.00862536
-0.0107156
-0.0119726
-0.0123811
-0.0118891
-0.010442
-0.00810896
-0.00516809
-0.00204787
0.000821367
0.00313227
0.00475642
0.00572901
0.00616799
0.00616782
0.00572848
0.00475553
0.00313103
0.00081983
-0.00204962
-0.00516993
-0.00811075
-0.0104436
-0.0118904
-0.012382
-0.0119731
-0.0107157
-0.00862509
-0.00575629
-0.00230971
0.00131379
0.00457704
0.00700445
0.00838307
0.00879157
0.00845381
0.00758012
0.00631793
0.00478774
0.00315218
0.00165316
0.000546104
-2.76838e-05
-0.000103374
0.00015384
0.000527764
0.000800584
0.000806449
0.000522364
0.000101129
-0.000239956
-0.000376801
-0.000327866
-0.000193564
-8.76816e-05
-8.83018e-05
-0.000184537
-0.000269673
-0.000228325
-5.56527e-05
0.000129358
0.000207185
0.000164039
5.92568e-05
0.000163993
0.000462661
0.000608081
0.00043027
-3.9235e-05
-0.000466844
-0.000521336
-0.000228553
7.12012e-05
7.03406e-05
-0.000257928
-0.000686009
-0.00088677
-0.000568418
0.000334102
0.00148252
0.00226954
0.00226574
0.00153486
0.000537573
-0.000121436
0.000167329
0.0018815
0.0051291
0.00950239
0.0142569
0.0186865
0.0223171
0.0247991
0.0257067
0.0244307
0.0203183
0.0131402
0.00352552
-0.0071228
-0.0172245
-0.0256084
-0.0316989
-0.0353468
-0.0365111
-0.0350381
-0.0307692
-0.0239153
-0.0153019
-0.00619409
0.00213955
0.008801
0.0134355
0.0161799
0.0174075
0.017407
0.0161784
0.0134329
0.00879746
0.00213517
-0.00619907
-0.0153071
-0.0239203
-0.0307738
-0.0350419
-0.0365139
-0.0353484
-0.0316993
-0.0256077
-0.017223
-0.00712061
0.00352807
0.0131428
0.0203206
0.0244327
0.0257083
0.0248003
0.022318
0.0186872
0.0142575
0.00950289
0.00512944
0.0018816
0.000167165
-0.000121861
0.000536968
0.0015342
0.00226515
0.0022691
0.00148224
0.00033394
-0.000568503
-0.000886812
-0.000686026
-0.000257922
7.03592e-05
7.11996e-05
-0.000228611
-0.00052145
-0.00046696
-3.92846e-05
0.000430317
0.000608193
0.000462772
0.00016404
0.00020714
0.000608081
0.000849061
0.000672374
0.000102227
-0.000379996
-0.000298334
0.000274033
0.000793451
0.000790115
0.000238142
-0.000507426
-0.000952518
-0.0006482
0.000537263
0.00214159
0.00328957
0.00335554
0.00242981
0.00116703
0.000425743
0.00110232
0.00393841
0.00912358
0.0160301
0.0234849
0.0303699
0.0359359
0.0396368
0.0408159
0.0385283
0.0317517
0.0201317
0.00468987
-0.0123115
-0.0283412
-0.0415529
-0.0510766
-0.0567199
-0.0584378
-0.0559853
-0.0491144
-0.0381815
-0.0245279
-0.0101917
0.0027914
0.0130068
0.0199603
0.0239756
0.0257333
0.0257325
0.0239733
0.0199564
0.0130014
0.00278479
-0.0101992
-0.0245357
-0.0381892
-0.0491214
-0.0559911
-0.0584422
-0.0567227
-0.0510778
-0.0415525
-0.0283393
-0.0123084
0.00469367
0.0201357
0.0317555
0.0385317
0.0408186
0.039639
0.0359376
0.0303711
0.0234858
0.0160308
0.00912401
0.00393853
0.00110208
0.000425187
0.00116625
0.00242898
0.0033548
0.003289
0.00214117
0.000536962
-0.000648431
-0.000952694
-0.000507535
0.000238118
0.000790162
0.000793506
0.00027402
-0.000298435
-0.000380123
0.000102164
0.000672417
0.000849175
0.000608193
0.000207186
0.000129339
0.00043027
0.000672374
0.000541448
2.23696e-05
-0.000342675
-1.73754e-05
0.000856231
0.00157864
0.00158477
0.000875897
-0.000105922
-0.00078354
-0.00062102
0.000588942
0.00237423
0.00375871
0.00403383
0.00329996
0.00227047
0.00187987
0.00316912
0.00708045
0.0139013
0.0228534
0.0324191
0.0411356
0.048022
0.052378
0.0533835
0.049855
0.0405015
0.0249018
0.00444886
-0.0178334
-0.0386064
-0.055503
-0.0674953
-0.0744435
-0.0763493
-0.0729049
-0.0637933
-0.0495088
-0.0318454
-0.013506
0.00282984
0.0153567
0.0235704
0.0280952
0.0299895
0.0299885
0.0280923
0.0235657
0.0153503
0.0028219
-0.013515
-0.0318549
-0.0495181
-0.0638019
-0.0729124
-0.0763552
-0.0744477
-0.0674976
-0.0555033
-0.0386048
-0.0178301
0.00445335
0.0249069
0.0405066
0.0498597
0.0533875
0.0523812
0.0480244
0.0411374
0.0324204
0.0228543
0.0139018
0.00708053
0.00316883
0.00187925
0.00226966
0.0032991
0.00403306
0.00375807
0.0023737
0.000588458
-0.000621466
-0.000783922
-0.000106184
0.000875799
0.00158482
0.00157875
0.000856284
-1.74271e-05
-0.000342785
2.22875e-05
0.000541438
0.000672416
0.000430317
0.000129358
-5.56323e-05
-3.9235e-05
0.000102227
2.23696e-05
-0.000367244
-0.000549165
6.81538e-08
0.00107417
0.00190055
0.00191568
0.00118495
0.000183426
-0.000544785
-0.000485646
0.00062128
0.00239445
0.00392718
0.00455183
0.0043704
0.00402648
0.0043599
0.00641932
0.0112875
0.0193728
0.0298259
0.0408723
0.0507631
0.0583161
0.0627122
0.0630357
0.0579761
0.0461086
0.0270413
0.00253746
-0.0237245
-0.0477724
-0.0669121
-0.0801351
-0.0874861
-0.0890962
-0.0846444
-0.0737669
-0.057069
-0.0367046
-0.015897
0.00219552
0.0155419
0.0237735
0.0279247
0.0294989
0.0294979
0.0279217
0.0237686
0.0155352
0.00218731
-0.0159064
-0.0367146
-0.057079
-0.0737764
-0.084653
-0.0891034
-0.0874918
-0.0801388
-0.0669137
-0.0477717
-0.0237217
0.00254202
0.027047
0.0461147
0.0579819
0.0630409
0.0627166
0.0583195
0.0507656
0.0408741
0.029827
0.0193734
0.0112875
0.00641897
0.00435924
0.00402564
0.00436952
0.00455102
0.00392646
0.00239378
0.000620612
-0.000486299
-0.000545364
0.000183004
0.00118474
0.00191568
0.00190064
0.00107424
3.82875e-08
-0.000549266
-0.000367353
2.22858e-05
0.000102162
-3.92854e-05
-5.56527e-05
-0.000228277
-0.000466844
-0.000379996
-0.000342675
-0.000549165
-0.00057441
4.78371e-05
0.00108602
0.00180934
0.00177571
0.00116275
0.000423708
-5.89098e-05
7.2966e-05
0.00107383
0.00271314
0.00429284
0.0052982
0.00583895
0.00640018
0.00760633
0.0104152
0.0160073
0.0249391
0.0363661
0.0483344
0.0588467
0.0665263
0.0704477
0.0696492
0.062796
0.048473
0.0264372
-0.00115961
-0.0300884
-0.0559259
-0.0758541
-0.0890652
-0.0959254
-0.0967867
-0.0913709
-0.0792803
-0.0611836
-0.039485
-0.0177732
0.000493617
0.0132297
0.0203277
0.0233026
0.0241429
0.024142
0.0233
0.0203233
0.0132237
0.000486151
-0.0177818
-0.0394944
-0.0611933
-0.0792899
-0.09138
-0.0967949
-0.0959324
-0.0890705
-0.0758573
-0.0559266
-0.0300867
-0.00115566
0.0264427
0.0484794
0.0628025
0.0696553
0.070453
0.0665307
0.0588501
0.0483368
0.0363676
0.0249399
0.0160075
0.0104149
0.00760567
0.00639933
0.00583804
0.00529733
0.00429203
0.00271235
0.00107305
7.2196e-05
-5.96004e-05
0.000423174
0.00116243
0.00177558
0.00180932
0.00108601
4.77864e-05
-0.0005745
-0.000549268
-0.000342789
-0.000380126
-0.000466961
-0.000228325
-0.000269622
-0.000521336
-0.000298334
-1.73754e-05
6.81538e-08
4.78371e-05
0.000522057
0.00122628
0.00159193
0.00141377
0.00102877
0.000824714
0.000911291
0.00136168
0.00234331
0.00379016
0.00529983
0.00659153
0.00779956
0.00921221
0.0111825
0.014527
0.020499
0.0298253
0.0417337
0.0541598
0.0648883
0.0723421
0.0754845
0.0733318
0.0645953
0.047987
0.0235191
-0.00625402
-0.0366596
-0.0630032
-0.0825265
-0.0947672
-0.100511
-0.100391
-0.0942032
-0.0815036
-0.0629603
-0.0411186
-0.0197946
-0.00259312
0.00847949
0.0136482
0.0149176
0.0147568
0.0147562
0.0149157
0.0136449
0.00847488
-0.00259904
-0.0198017
-0.0411267
-0.062969
-0.0815127
-0.0942122
-0.1004
-0.100519
-0.0947738
-0.0825312
-0.0630055
-0.0366593
-0.00625137
0.0235237
0.0479929
0.0646017
0.0733381
0.0754904
0.0723472
0.0648925
0.0541631
0.0417359
0.0298266
0.0204996
0.0145269
0.0111821
0.00921145
0.00779868
0.00659062
0.00529895
0.0037893
0.00234248
0.00136088
0.000910564
0.000824106
0.00102831
0.00141346
0.00159172
0.00122614
0.000521967
4.77855e-05
3.62346e-08
-1.74297e-05
-0.000298437
-0.000521451
-0.000269673
-0.000184505
-0.000228553
0.000274033
0.000856231
0.00107417
0.00108602
0.00122628
0.00138505
0.00123617
0.000876925
0.000824183
0.0013726
0.00229619
0.00330063
0.00439647
0.00566412
0.00703007
0.00848844
0.0102146
0.0122991
0.0148154
0.0184171
0.0244043
0.0336765
0.0455864
0.0580351
0.0686403
0.0756411
0.0778916
0.0743947
0.0639416
0.0454358
0.0192016
-0.0118253
-0.042654
-0.0684966
-0.0868046
-0.0975474
-0.10196
-0.100955
-0.0943808
-0.0817021
-0.0635115
-0.0423991
-0.0223021
-0.00687158
0.00203105
0.00496338
0.0043669
0.00313704
0.00313671
0.00436588
0.00496156
0.00202826
-0.00687546
-0.0223071
-0.0424052
-0.0635187
-0.08171
-0.0943891
-0.100964
-0.101968
-0.0975548
-0.0868105
-0.0685005
-0.0426556
-0.0118244
0.0192046
0.0454403
0.0639471
0.0744007
0.0778975
0.0756467
0.0686453
0.0580392
0.0455895
0.0336786
0.0244056
0.0184177
0.0148154
0.0122987
0.0102139
0.00848757
0.00702914
0.00566319
0.00439558
0.00329979
0.00229542
0.00137191
0.000823566
0.000876396
0.00123575
0.00138477
0.00122614
0.00108601
0.00107424
0.000856284
0.000274021
-0.00022861
-0.000184536
-8.82913e-05
7.12012e-05
0.000793451
0.00157864
0.00190055
0.00180934
0.00159193
0.00123617
0.000657541
0.000233235
0.000629732
0.00203537
0.00389542
0.0055478
0.00682554
0.00793525
0.00912997
0.0106862
0.01283
0.0154686
0.0184048
0.0221063
0.0278643
0.0367135
0.0481598
0.0601562
0.0702482
0.0765555
0.0778589
0.0731628
0.0613453
0.0415146
0.0143029
-0.0170433
-0.0473655
-0.0719542
-0.0885878
-0.0976983
-0.100935
-0.099424
-0.0929899
-0.0809362
-0.0637054
-0.04385
-0.0253524
-0.0118656
-0.00511294
-0.00426644
-0.00654606
-0.00872549
-0.00872549
-0.00654612
-0.00426678
-0.00511384
-0.0118674
-0.0253553
-0.043854
-0.0637107
-0.0809425
-0.0929969
-0.0994317
-0.100943
-0.0977058
-0.0885944
-0.0719594
-0.0473688
-0.0170445
0.0143037
0.0415172
0.0613492
0.0731676
0.0778643
0.0765611
0.0702536
0.0601611
0.0481638
0.0367166
0.0278665
0.0221077
0.0184055
0.0154687
0.0128297
0.0106855
0.00912904
0.00793424
0.00682454
0.00554687
0.00389456
0.00203457
0.00062896
0.000232517
0.000656938
0.00123575
0.00159172
0.00180932
0.00190064
0.00157875
0.000793509
7.12027e-05
-8.83004e-05
-8.76831e-05
7.03406e-05
0.000790115
0.00158477
0.00191568
0.00177571
0.00141377
0.000876925
0.000233235
2.32267e-05
0.000976455
0.00317322
0.00580901
0.00794489
0.00927901
0.0101392
0.0110852
0.0126648
0.0151625
0.018327
0.0217047
0.0255384
0.0310163
0.039219
0.0497976
0.060845
0.0699632
0.0752664
0.0755339
0.069799
0.0570194
0.0364828
0.00907817
-0.0217439
-0.050815
-0.0736538
-0.0884424
-0.0960642
-0.0985065
-0.0970006
-0.0912488
-0.0803182
-0.0644398
-0.0460592
-0.0291464
-0.0173517
-0.0123214
-0.0130623
-0.0165822
-0.0194487
-0.0194485
-0.0165816
-0.0130615
-0.0123208
-0.0173517
-0.0291474
-0.0460613
-0.0644431
-0.0803226
-0.0912542
-0.0970068
-0.0985132
-0.0960711
-0.0884491
-0.0736597
-0.0508197
-0.021747
0.00907679
0.0364831
0.0570212
0.0698021
0.0755381
0.0752714
0.0699685
0.0608502
0.0498023
0.039223
0.0310196
0.0255409
0.0217064
0.018328
0.0151628
0.0126644
0.0110844
0.0101382
0.00927792
0.00794383
0.00580803
0.0031723
0.000975569
2.23907e-05
0.000232516
0.000876394
0.00141346
0.00177558
0.00191568
0.00158483
0.000790166
7.03625e-05
-8.76805e-05
-0.000193569
-0.000257928
0.000238142
0.000875897
0.00118495
0.00116275
0.00102877
0.000824183
0.000629732
0.000976455
0.00253739
0.0052945
0.00832402
0.0105631
0.0116558
0.0120459
0.0125582
0.0139868
0.0166906
0.020308
0.024165
0.0282474
0.0335271
0.0410061
0.0504375
0.0601228
0.0678569
0.0718812
0.0710578
0.0644714
0.0511346
0.0304621
0.00351897
-0.0261583
-0.0535262
-0.07443
-0.0874788
-0.0939566
-0.0960879
-0.0950942
-0.0904628
-0.0809726
-0.0666038
-0.0496394
-0.0339903
-0.0233186
-0.0192825
-0.0208553
-0.0249817
-0.0281693
-0.028169
-0.0249807
-0.0208539
-0.019281
-0.0233174
-0.0339897
-0.0496397
-0.0666051
-0.0809749
-0.0904661
-0.0950984
-0.096093
-0.0939623
-0.0874849
-0.074436
-0.0535318
-0.0261629
0.00351555
0.0304601
0.0511341
0.0644724
0.0710602
0.0718849
0.0678615
0.0601278
0.0504424
0.0410107
0.0335313
0.028251
0.0241679
0.02031
0.0166917
0.013987
0.0125577
0.012045
0.0116547
0.010562
0.00832297
0.0052935
0.00253644
0.00097557
0.000628959
0.000823565
0.00102831
0.00116243
0.00118474
0.000875801
0.00023812
-0.00025792
-0.000193564
-0.000327871
-0.000686009
-0.000507426
-0.000105922
0.000183426
0.000423708
0.000824714
0.0013726
0.00203537
0.00317322
0.0052945
0.00830733
0.0113158
0.0132959
0.0139071
0.0136671
0.0135774
0.0146239
0.0172594
0.0210933
0.0253147
0.0296634
0.034811
0.0415606
0.0497041
0.057793
0.063927
0.0665886
0.0647866
0.0576553
0.044211
0.023918
-0.00208029
-0.0302734
-0.0558356
-0.0749698
-0.0866686
-0.0925175
-0.0948598
-0.0948024
-0.0915591
-0.0836051
-0.0706587
-0.0548049
-0.0398602
-0.029518
-0.0255396
-0.0270104
-0.0309812
-0.0340587
-0.0340584
-0.0309803
-0.027009
-0.0255379
-0.0295162
-0.0398586
-0.0548038
-0.0706583
-0.0836055
-0.0915603
-0.0948045
-0.0948629
-0.0925216
-0.0866736
-0.0749755
-0.0558414
-0.0302791
-0.00208533
0.023914
0.0442083
0.0576541
0.0647871
0.0665907
0.0639303
0.0577972
0.0497088
0.0415655
0.0348159
0.0296679
0.0253187
0.0210964
0.0172614
0.014625
0.0135776
0.0136666
0.0139063
0.0132949
0.0113147
0.00830629
0.00529351
0.0031723
0.00203457
0.00137191
0.000824104
0.000423172
0.000183003
-0.000106186
-0.000507537
-0.000686027
-0.000327866
-0.000376801
-0.00088677
-0.000952518
-0.00078354
-0.000544785
-5.89098e-05
0.000911291
0.00229619
0.00389542
0.00580901
0.00832402
0.0113158
0.0140476
0.0156638
0.0158624
0.0151333
0.0145031
0.0150451
0.0173091
0.0209774
0.0252348
0.0296551
0.0345922
0.040571
0.047365
0.0537903
0.0583217
0.0597533
0.0572667
0.0500151
0.036947
0.0174833
-0.00725814
-0.0338886
-0.0578508
-0.0756784
-0.0866416
-0.0924823
-0.0955272
-0.0966885
-0.0948926
-0.0883377
-0.0765011
-0.0612633
-0.0463311
-0.0354408
-0.0305297
-0.0309318
-0.0339738
-0.0365121
-0.0365118
-0.0339731
-0.0309306
-0.0305281
-0.0354388
-0.0463289
-0.0612612
-0.0764994
-0.0883364
-0.094892
-0.0966887
-0.0955284
-0.0924847
-0.0866452
-0.0756831
-0.0578564
-0.0338946
-0.00726414
0.0174779
0.0369425
0.0500119
0.0572652
0.0597534
0.0583233
0.0537932
0.0473689
0.0405756
0.0345972
0.0296601
0.0252396
0.0209815
0.0173122
0.0150471
0.0145041
0.0151336
0.015862
0.015663
0.0140466
0.0113147
0.00832297
0.00580804
0.00389456
0.00229542
0.000910562
-5.96034e-05
-0.000545368
-0.000783927
-0.000952698
-0.000886815
-0.000376802
-0.000239939
-0.000568418
-0.0006482
-0.00062102
-0.000485646
7.2966e-05
0.00136168
0.00330063
0.0055478
0.00794489
0.0105631
0.0132959
0.0156638
0.0170619
0.017212
0.0164414
0.0156101
0.0157318
0.0174209
0.0205207
0.0243657
0.0284956
0.0329963
0.0380889
0.043489
0.0482714
0.0513099
0.0517324
0.0488867
0.0419062
0.0296079
0.0112868
-0.0120535
-0.0372187
-0.059944
-0.0770387
-0.0879175
-0.0943093
-0.0983913
-0.100834
-0.10031
-0.0948045
-0.0836079
-0.0684215
-0.0528438
-0.0406533
-0.0339977
-0.0325558
-0.0340619
-0.0357304
-0.0357302
-0.0340614
-0.0325548
-0.0339962
-0.0406513
-0.0528414
-0.0684189
-0.0836053
-0.0948022
-0.100308
-0.100833
-0.0983908
-0.0943099
-0.0879195
-0.0770422
-0.0599487
-0.0372244
-0.0120597
0.0112806
0.0296023
0.0419015
0.0488833
0.0517305
0.0513096
0.0482725
0.0434915
0.0380926
0.0330009
0.0285008
0.024371
0.0205256
0.0174251
0.015735
0.0156122
0.0164426
0.0172124
0.0170616
0.015663
0.0132949
0.010562
0.00794384
0.00554687
0.00329979
0.00136088
7.21934e-05
-0.000486304
-0.000621472
-0.000648436
-0.000568505
-0.000239956
0.000101182
0.000334102
0.000537263
0.000588942
0.00062128
0.00107383
0.00234331
0.00439647
0.00682554
0.00927901
0.0116558
0.0139071
0.0158624
0.017212
0.017688
0.0173525
0.0167359
0.016642
0.0176826
0.0199062
0.022923
0.0263774
0.0301717
0.0342367
0.0382067
0.0413912
0.0430459
0.0426147
0.039591
0.0330696
0.0217135
0.00465376
-0.0172706
-0.0411065
-0.0628977
-0.079684
-0.0909065
-0.0981327
-0.103287
-0.106793
-0.107139
-0.102194
-0.0911356
-0.0755304
-0.0588747
-0.0449688
-0.0361604
-0.0325024
-0.0321915
-0.0328419
-0.0328418
-0.032191
-0.0325016
-0.0361591
-0.044967
-0.0588725
-0.075528
-0.091133
-0.102191
-0.107136
-0.10679
-0.103285
-0.0981316
-0.0909067
-0.0796857
-0.0629009
-0.041111
-0.017276
0.00464775
0.0217074
0.0330639
0.039586
0.0426108
0.0430433
0.0413901
0.0382072
0.0342389
0.0301753
0.0263822
0.0229283
0.0199117
0.0176876
0.0166463
0.0167393
0.0173549
0.0176894
0.0172124
0.015862
0.0139063
0.0116547
0.00927792
0.00682454
0.00439558
0.00234248
0.00107305
0.00062061
0.000588455
0.000536959
0.000333939
0.00010113
0.000522471
0.00148252
0.00214159
0.00237423
0.00239445
0.00271314
0.00379016
0.00566412
0.00793525
0.0101392
0.0120459
0.0136671
0.0151333
0.0164414
0.0173525
0.0176499
0.0174657
0.0172945
0.017669
0.0188327
0.0207343
0.0232241
0.0261026
0.0290418
0.0315802
0.0332238
0.033564
0.0323174
0.0291018
0.0229865
0.0125128
-0.00333234
-0.0238808
-0.0464441
-0.0673924
-0.0839755
-0.0955874
-0.103537
-0.109444
-0.113521
-0.114176
-0.109271
-0.0979582
-0.0817065
-0.0639016
-0.0483222
-0.0374639
-0.03171
-0.0296857
-0.0293782
-0.0293781
-0.0296853
-0.0317094
-0.0374629
-0.0483209
-0.0639
-0.0817047
-0.097956
-0.109269
-0.114173
-0.113518
-0.109441
-0.103534
-0.0955858
-0.0839754
-0.0673938
-0.046447
-0.023885
-0.00333755
0.0125069
0.0229802
0.0290957
0.0323118
0.0335594
0.0332206
0.0315788
0.0290422
0.0261048
0.0232279
0.0207392
0.0188381
0.0176745
0.0172996
0.0174702
0.0176534
0.0173549
0.0164426
0.0151336
0.0136666
0.012045
0.0101382
0.00793424
0.00566319
0.00378931
0.00271235
0.00239378
0.0023737
0.00214117
0.00148224
0.000522365
0.000806622
0.00226954
0.00328957
0.00375871
0.00392718
0.00429284
0.00529983
0.00703007
0.00912997
0.0110852
0.0125582
0.0135774
0.0145031
0.0156101
0.0167359
0.0174657
0.0175818
0.0172575
0.0168937
0.0168798
0.0175002
0.0188572
0.0207131
0.0225179
0.023705
0.023928
0.0230468
0.0209904
0.0174768
0.0115839
0.0018037
-0.0129588
-0.032182
-0.053449
-0.0734685
-0.0896916
-0.101424
-0.10967
-0.115745
-0.11972
-0.12005
-0.114719
-0.102938
-0.0860989
-0.0674398
-0.0506476
-0.0382813
-0.0309571
-0.0276298
-0.0265862
-0.0265862
-0.0276296
-0.0309568
-0.0382808
-0.0506471
-0.067439
-0.0860979
-0.102936
-0.114717
-0.120047
-0.119717
-0.115741
-0.109666
-0.101421
-0.0896898
-0.0734681
-0.0534501
-0.0321845
-0.0129627
0.00179856
0.0115779
0.0174702
0.0209838
0.0230408
0.0239231
0.0237016
0.0225165
0.0207137
0.0188595
0.017504
0.0168846
0.016899
0.017263
0.017587
0.0174702
0.0167393
0.0156122
0.0145041
0.0135776
0.0125577
0.0110844
0.00912904
0.00702915
0.00529895
0.00429204
0.00392646
0.00375807
0.00328901
0.0022691
0.00080645
0.000800816
0.00226574
0.00335554
0.00403383
0.00455183
0.0052982
0.00659153
0.00848844
0.0106862
0.0126648
0.0139868
0.0146239
0.0150451
0.0157318
0.016642
0.0172945
0.0172575
0.0164541
0.0151417
0.0137975
0.0129962
0.0131009
0.0138891
0.0146383
0.014676
0.0137453
0.0118835
0.00914707
0.00531526
-0.000493338
-0.00975299
-0.023565
-0.0415231
-0.0614823
-0.0804871
-0.0961648
-0.107691
-0.115735
-0.121329
-0.124499
-0.123888
-0.117746
-0.105427
-0.0882543
-0.0692519
-0.0519247
-0.0387928
-0.0305909
-0.026487
-0.0249872
-0.0249873
-0.026487
-0.0305908
-0.0387927
-0.0519245
-0.0692517
-0.0882538
-0.105426
-0.117744
-0.123885
-0.124496
-0.121325
-0.115731
-0.107688
-0.0961619
-0.0804852
-0.0614817
-0.0415239
-0.0235673
-0.00975686
-0.000498535
0.0053091
0.00914041
0.0118769
0.0137394
0.0146713
0.0146352
0.0138878
0.0131013
0.0129983
0.0138009
0.0151462
0.0164593
0.017263
0.0172996
0.0166463
0.015735
0.0150471
0.014625
0.013987
0.0126644
0.0106855
0.00848757
0.00659063
0.00529734
0.00455103
0.00403306
0.00335481
0.00226516
0.000800584
0.000528024
0.00153486
0.00242981
0.00329996
0.0043704
0.00583895
0.00779956
0.0102146
0.01283
0.0151625
0.0166906
0.0172594
0.0173091
0.0174209
0.0176826
0.017669
0.0168937
0.0151417
0.0125499
0.00963453
0.00720286
0.00587481
0.00550928
0.00529318
0.00447331
0.00282115
0.000435356
-0.00261751
-0.00656341
-0.01223
-0.0209869
-0.0338779
-0.0505953
-0.0692738
-0.0872824
-0.102378
-0.11354
-0.121057
-0.125687
-0.127498
-0.12546
-0.118227
-0.105379
-0.0881673
-0.0693368
-0.0521116
-0.0388757
-0.0303881
-0.0259473
-0.0242222
-0.0242222
-0.0259474
-0.0303882
-0.0388757
-0.0521115
-0.0693366
-0.088167
-0.105379
-0.118226
-0.125458
-0.127496
-0.125685
-0.121054
-0.113537
-0.102374
-0.0872797
-0.0692719
-0.0505946
-0.0338787
-0.0209892
-0.0122337
-0.00656841
-0.00262338
0.000429078
0.00281497
0.00446773
0.00528864
0.0055061
0.0058732
0.0072029
0.00963619
0.0125531
0.0151462
0.016899
0.0176745
0.0176876
0.0174251
0.0173122
0.0172614
0.0166917
0.0151628
0.0128297
0.0102139
0.00779869
0.00583805
0.00436952
0.00329911
0.00242899
0.0015342
0.000527763
0.000154077
0.000537573
0.00116703
0.00227047
0.00402648
0.00640018
0.00921221
0.0122991
0.0154686
0.018327
0.020308
0.0210933
0.0209774
0.0205207
0.0199062
0.0188327
0.0168798
0.0137975
0.00963453
0.0049057
0.000587121
-0.00245293
-0.00418708
-0.00538764
-0.00681533
-0.00870986
-0.0110367
-0.0138598
-0.017501
-0.0227417
-0.030793
-0.0425936
-0.0579361
-0.0752646
-0.0922796
-0.106828
-0.117629
-0.124526
-0.127991
-0.12818
-0.12449
-0.116072
-0.102791
-0.0858226
-0.067583
-0.0509354
-0.038053
-0.0296672
-0.0251702
-0.0233673
-0.0233674
-0.0251705
-0.0296674
-0.0380531
-0.0509353
-0.0675827
-0.0858221
-0.10279
-0.116072
-0.124489
-0.128179
-0.127989
-0.124524
-0.117626
-0.106825
-0.0922765
-0.0752619
-0.0579342
-0.0425929
-0.0307936
-0.0227438
-0.0175045
-0.0138643
-0.0110421
-0.00871573
-0.00682129
-0.00539324
-0.00419187
-0.00245649
0.000585121
0.00490548
0.00963619
0.0138009
0.0168846
0.0188381
0.0199117
0.0205256
0.0209815
0.0210964
0.02031
0.018328
0.0154687
0.0122987
0.00921146
0.00639933
0.00402564
0.00226966
0.00116625
0.000536966
0.000153837
-0.00010321
-0.000121436
0.000425743
0.00187987
0.0043599
0.00760633
0.0111825
0.0148154
0.0184048
0.0217047
0.024165
0.0253147
0.0252348
0.0243657
0.022923
0.0207343
0.0175002
0.0129962
0.00720286
0.000587121
-0.00578744
-0.0108344
-0.0142698
-0.0166564
-0.0186318
-0.0204386
-0.0222076
-0.0242699
-0.0271407
-0.0315707
-0.0385656
-0.0489136
-0.0625141
-0.0781691
-0.0939541
-0.107816
-0.118192
-0.124452
-0.126758
-0.125367
-0.120124
-0.110705
-0.0972585
-0.0808845
-0.0636423
-0.0479911
-0.0358496
-0.0278931
-0.0235853
-0.0218394
-0.0218396
-0.0235856
-0.0278934
-0.0358499
-0.0479911
-0.0636421
-0.0808842
-0.0972581
-0.110705
-0.120124
-0.125366
-0.126757
-0.12445
-0.11819
-0.107814
-0.0939512
-0.0781661
-0.0625114
-0.0489117
-0.0385648
-0.0315712
-0.0271424
-0.024273
-0.0222118
-0.0204437
-0.0186377
-0.0166625
-0.0142757
-0.0108395
-0.0057912
0.000585121
0.0072029
0.0129983
0.017504
0.0207392
0.0229284
0.024371
0.0252396
0.0253187
0.0241679
0.0217064
0.0184055
0.0148154
0.0111821
0.00760567
0.00435924
0.00187925
0.000425185
-0.000121863
-0.000103377
-2.76226e-05
0.000167329
0.00110232
0.00316912
0.00641932
0.0104152
0.014527
0.0184171
0.0221063
0.0255384
0.0282474
0.0296634
0.0296551
0.0284956
0.0263774
0.0232241
0.0188572
0.0131009
0.00587481
-0.00245293
-0.0108344
-0.0180378
-0.0234737
-0.0273349
-0.0299737
-0.0315754
-0.0324899
-0.0334232
-0.0351705
-0.0384706
-0.0440772
-0.0525711
-0.0639455
-0.0773987
-0.0914436
-0.104189
-0.113839
-0.119327
-0.120524
-0.117771
-0.111334
-0.101354
-0.0882202
-0.0729339
-0.0572017
-0.043079
-0.0322107
-0.0251767
-0.0214532
-0.0199889
-0.019989
-0.0214537
-0.0251774
-0.0322114
-0.0430795
-0.057202
-0.072934
-0.08822
-0.101353
-0.111333
-0.11777
-0.120523
-0.119326
-0.113837
-0.104187
-0.091441
-0.0773957
-0.0639425
-0.0525685
-0.0440754
-0.0384698
-0.0351709
-0.0334248
-0.0324927
-0.0315795
-0.029979
-0.027341
-0.0234801
-0.0180439
-0.0108395
-0.00245649
0.00587321
0.0131013
0.0188595
0.0232279
0.0263822
0.0285008
0.0296602
0.0296679
0.028251
0.0255409
0.0221077
0.0184177
0.0145269
0.0104148
0.00641896
0.00316882
0.00110208
0.000167162
-2.76871e-05
0.000546061
0.0018815
0.00393841
0.00708045
0.0112875
0.0160073
0.020499
0.0244043
0.0278643
0.0310163
0.0335271
0.034811
0.0345922
0.0329963
0.0301717
0.0261026
0.0207131
0.0138891
0.00550928
-0.00418708
-0.0142698
-0.0234737
-0.0309264
-0.0363535
-0.0396862
-0.0409762
-0.0408074
-0.0403332
-0.0407019
-0.0426651
-0.04669
-0.0530858
-0.0618928
-0.0727009
-0.0844949
-0.0956113
-0.104119
-0.108612
-0.108723
-0.104882
-0.0977123
-0.0877288
-0.0754782
-0.0618322
-0.0481728
-0.0361937
-0.0272689
-0.0218234
-0.0192362
-0.0183701
-0.0183704
-0.0192368
-0.0218243
-0.0272701
-0.0361949
-0.0481739
-0.0618329
-0.0754783
-0.0877284
-0.0977115
-0.104881
-0.108722
-0.108611
-0.104118
-0.0956099
-0.0844929
-0.0726983
-0.0618899
-0.0530829
-0.0466877
-0.0426635
-0.0407011
-0.0403335
-0.0408088
-0.0409789
-0.0396904
-0.0363589
-0.0309326
-0.0234801
-0.0142757
-0.00419186
0.00550611
0.0138878
0.0207137
0.0261049
0.0301753
0.0330009
0.0345973
0.0348159
0.0335313
0.0310196
0.0278665
0.0244056
0.0204996
0.0160075
0.0112875
0.00708052
0.00393852
0.0018816
0.000546101
0.00165304
0.0051291
0.00912358
0.0139013
0.0193728
0.0249391
0.0298253
0.0336765
0.0367135
0.039219
0.0410061
0.0415606
0.040571
0.0380889
0.0342367
0.0290418
0.0225179
0.0146383
0.00529318
-0.00538764
-0.0166564
-0.0273349
-0.0363535
-0.0429688
-0.0466354
-0.0472301
-0.0455754
-0.0433153
-0.0420073
-0.042455
-0.0448341
-0.0491332
-0.0553751
-0.0634878
-0.0729012
-0.0821985
-0.0893851
-0.0928148
-0.0919589
-0.0873399
-0.0798828
-0.070387
-0.059472
-0.0478531
-0.0366331
-0.027218
-0.0207427
-0.0174289
-0.016448
-0.0164546
-0.0164549
-0.0164488
-0.0174301
-0.0207442
-0.0272197
-0.0366346
-0.0478541
-0.0594722
-0.0703866
-0.0798818
-0.0873387
-0.0919578
-0.092814
-0.0893844
-0.0821977
-0.0728999
-0.063486
-0.0553729
-0.0491308
-0.0448318
-0.0424531
-0.0420058
-0.0433143
-0.0455753
-0.0472311
-0.046638
-0.0429729
-0.0363589
-0.027341
-0.0166625
-0.00539323
0.00528865
0.0146352
0.0225165
0.0290422
0.0342389
0.0380926
0.0405756
0.0415655
0.0410107
0.039223
0.0367166
0.0336786
0.0298266
0.0249399
0.0193734
0.0139018
0.009124
0.00512943
0.00165316
0.003152
0.00950239
0.0160301
0.0228534
0.0298259
0.0363661
0.0417337
0.0455864
0.0481598
0.0497976
0.0504375
0.0497041
0.047365
0.043489
0.0382067
0.0315802
0.023705
0.014676
0.00447331
-0.00681533
-0.0186318
-0.0299737
-0.0396862
-0.0466354
-0.0498383
-0.0490149
-0.0452366
-0.0406527
-0.0372624
-0.0359689
-0.0366906
-0.0390884
-0.0431172
-0.0489662
-0.0564291
-0.0642828
-0.0704714
-0.0731538
-0.0716804
-0.0666673
-0.0592988
-0.0505943
-0.041192
-0.0316438
-0.0228275
-0.0159475
-0.0119593
-0.0108823
-0.0116325
-0.0125952
-0.0125955
-0.0116334
-0.0108835
-0.0119608
-0.015949
-0.0228287
-0.0316445
-0.041192
-0.0505936
-0.0592977
-0.0666661
-0.0716794
-0.0731532
-0.0704711
-0.0642827
-0.0564288
-0.0489655
-0.0431161
-0.039087
-0.0366889
-0.035967
-0.0372604
-0.0406506
-0.0452349
-0.0490141
-0.0498391
-0.046638
-0.0396904
-0.029979
-0.0186376
-0.00682129
0.00446774
0.0146713
0.0237017
0.0315788
0.0382073
0.0434915
0.0473689
0.0497088
0.0504424
0.0498023
0.0481638
0.0455895
0.0417359
0.0363676
0.029827
0.0228543
0.0160308
0.00950289
0.00315218
0.00478752
0.0142569
0.0234849
0.0324191
0.0408723
0.0483344
0.0541598
0.0580351
0.0601562
0.060845
0.0601228
0.057793
0.0537903
0.0482714
0.0413912
0.0332238
0.023928
0.0137453
0.00282115
-0.00870986
-0.0204386
-0.0315754
-0.0409762
-0.0472301
-0.0490149
-0.0459525
-0.0393738
-0.0319137
-0.0260117
-0.022715
-0.0217549
-0.0225097
-0.0248535
-0.029165
-0.0354936
-0.0427059
-0.0486221
-0.0511897
-0.0496354
-0.0446517
-0.0376498
-0.0298371
-0.0218578
-0.0141189
-0.00732775
-0.00256032
-0.000660056
-0.00149181
-0.00374532
-0.00554866
-0.00554897
-0.00374616
-0.00149295
-0.000661209
-0.00256123
-0.00732825
-0.0141189
-0.0218574
-0.0298363
-0.0376488
-0.0446507
-0.0496346
-0.0511893
-0.0486222
-0.0427063
-0.0354941
-0.0291654
-0.0248534
-0.0225092
-0.0217539
-0.0227133
-0.0260094
-0.0319108
-0.0393709
-0.0459504
-0.0490141
-0.0472311
-0.0409789
-0.0315795
-0.0204437
-0.00871574
0.00281497
0.0137394
0.0239231
0.0332206
0.0413901
0.0482725
0.0537933
0.0577972
0.0601278
0.0608502
0.0601611
0.0580392
0.0541631
0.0483368
0.0408741
0.0324204
0.0234858
0.0142575
0.00478774
0.00631767
0.0186865
0.0303699
0.0411356
0.0507631
0.0588467
0.0648883
0.0686403
0.0702482
0.0699632
0.0678569
0.063927
0.0583217
0.0513099
0.0430459
0.033564
0.0230468
0.0118835
0.000435356
-0.0110367
-0.0222076
-0.0324899
-0.0408074
-0.0455754
-0.0452366
-0.0393738
-0.0295649
-0.018872
-0.0101339
-0.0045761
-0.0018408
-0.00111636
-0.0022218
-0.005667
-0.0116447
-0.0189971
-0.0253472
-0.0284042
-0.0272626
-0.0226702
-0.0162316
-0.00932041
-0.00259251
0.0036582
0.00884836
0.0119803
0.0122711
0.00995508
0.00651451
0.00403801
0.00403772
0.00651375
0.00995416
0.0122704
0.01198
0.00884858
0.00365879
-0.00259171
-0.00931956
-0.0162307
-0.0226695
-0.027262
-0.0284039
-0.0253473
-0.0189976
-0.0116455
-0.00566791
-0.00222257
-0.00111674
-0.00184052
-0.00457494
-0.0101317
-0.018869
-0.0295615
-0.0393709
-0.0452349
-0.0455753
-0.0408088
-0.0324928
-0.0222118
-0.0110421
0.000429067
0.0118769
0.0230408
0.0335594
0.0430433
0.0513096
0.0583233
0.0639304
0.0678615
0.0699686
0.0702537
0.0686454
0.0648925
0.0588501
0.0507656
0.0411374
0.0303711
0.0186872
0.00631792
0.0075798
0.0223171
0.0359359
0.048022
0.0583161
0.0665263
0.0723421
0.0756411
0.0765555
0.0752664
0.0718812
0.0665886
0.0597533
0.0517324
0.0426147
0.0323174
0.0209904
0.00914707
-0.00261751
-0.0138598
-0.0242699
-0.0334232
-0.0403332
-0.0433153
-0.0406527
-0.0319137
-0.018872
-0.00491386
0.00680033
0.0148451
0.0195513
0.0217922
0.0217541
0.0188478