/*--------------------------------*- C++ -*----------------------------------*\
  =========                 |
  \\      /  F ield         | OpenFOAM: The Open Source CFD Toolbox
   \\    /   O peration     | Website:  https://openfoam.org
    \\  /    A nd           | Version:  10
     \\/     M anipulation  |
\*---------------------------------------------------------------------------*/
FoamFile
{
    format      ascii;
    class       volScalarField;
    location    "25";
    object      h;
}
// * * * * * * * * * * * * * * * * * * * * * * * * * * * * * * * * * * * * * //

dimensions      [0 1 0 0 0 0 0];

internalField   nonuniform List<scalar> 
10000
(
-0.00341694
-0.00642859
-0.0030652
0.00200326
0.00433712
0.00343891
0.000157111
-0.00430967
-0.00740176
-0.00707667
-0.00476461
-0.00385393
-0.00510105
-0.00579333
-0.0032275
0.00282539
0.0100352
0.015132
0.0168735
0.0166199
0.0158505
0.014789
0.0127172
0.00886371
0.00349796
-0.00211996
-0.00662176
-0.00914628
-0.00962688
-0.00863909
-0.00693554
-0.00516733
-0.00374153
-0.00277175
-0.00224236
-0.00202502
-0.00199677
-0.00206004
-0.00213185
-0.00218945
-0.00219777
-0.00217158
-0.00210282
-0.00201347
-0.00190725
-0.00180142
-0.00170289
-0.00162203
-0.00156437
-0.00153454
-0.00153455
-0.00156442
-0.00162211
-0.001703
-0.00180157
-0.00190744
-0.00201371
-0.0021031
-0.00217191
-0.00219813
-0.00218984
-0.00213225
-0.00206044
-0.00199714
-0.00202533
-0.0022426
-0.00277189
-0.00374156
-0.00516726
-0.00693539
-0.00863889
-0.00962667
-0.00914608
-0.00662153
-0.00211969
0.00349827
0.00886402
0.0127174
0.0147889
0.0158505
0.0166201
0.0168742
0.015133
0.0100357
0.00282462
-0.00322916
-0.00579485
-0.00510121
-0.00385256
-0.00476347
-0.00707751
-0.00740394
-0.00431103
0.000157631
0.00344085
0.00433964
0.00200482
-0.00306674
-0.00643274
-0.00341931
-0.00642859
-0.012679
-0.0072185
0.00270492
0.00849293
0.00747687
0.000643829
-0.0093713
-0.0177096
-0.020084
-0.0176753
-0.0156579
-0.015896
-0.0144276
-0.00606805
0.0103166
0.0294571
0.0434769
0.0493995
0.0499546
0.0482865
0.044929
0.037987
0.0257043
0.00924116
-0.00775493
-0.021303
-0.0288859
-0.0303307
-0.0272626
-0.0218771
-0.0161368
-0.0112443
-0.00762054
-0.0052561
-0.00381348
-0.00299411
-0.00250817
-0.00217375
-0.0019029
-0.0016247
-0.00135681
-0.00107177
-0.000809992
-0.000556467
-0.000342598
-0.000158382
-2.1501e-05
7.3978e-05
0.000120735
0.000120733
7.3968e-05
-2.15207e-05
-0.000158418
-0.000342659
-0.00055656
-0.00081013
-0.00107196
-0.00135707
-0.00162502
-0.00190329
-0.00217419
-0.00250866
-0.00299461
-0.00381394
-0.00525648
-0.00762081
-0.0112445
-0.0161369
-0.021877
-0.0272627
-0.0303309
-0.0288863
-0.0213033
-0.00775492
0.00924164
0.0257053
0.0379881
0.0449299
0.0482872
0.0499557
0.0494013
0.043479
0.0294578
0.0103148
-0.00607142
-0.0144304
-0.0158966
-0.0156567
-0.0176749
-0.0200865
-0.0177133
-0.00937277
0.000646005
0.00748148
0.00849783
0.00270705
-0.00722222
-0.0126867
-0.00643276
-0.0030652
-0.0072185
-0.00617923
-0.000389802
0.004825
0.00439858
-0.00169583
-0.0106892
-0.0202643
-0.0281598
-0.0322975
-0.0321745
-0.0283223
-0.0198004
-0.00331814
0.0218072
0.0488742
0.0691314
0.0794479
0.0819065
0.0797659
0.0737572
0.0612666
0.0404561
0.0134412
-0.0143708
-0.0367143
-0.0494808
-0.0521513
-0.0469634
-0.0373889
-0.0267327
-0.0171138
-0.00957951
-0.00426012
-0.000786012
0.00127037
0.00242773
0.00296098
0.00315892
0.00312994
0.00298695
0.00278063
0.00254176
0.00230999
0.00208495
0.00189971
0.00174575
0.00164482
0.00159061
0.00159062
0.00164485
0.00174581
0.00189981
0.00208509
0.00231017
0.002542
0.00278093
0.00298731
0.00313037
0.00315942
0.00296153
0.00242832
0.00127096
-0.00078543
-0.0042596
-0.0095791
-0.0171136
-0.0267329
-0.0373895
-0.0469646
-0.052153
-0.0494829
-0.0367163
-0.0143718
0.0134415
0.0404578
0.0612692
0.0737599
0.0797682
0.0819088
0.0794504
0.0691338
0.0488752
0.0218057
-0.00332142
-0.0198036
-0.0283248
-0.0321771
-0.0323004
-0.0281622
-0.0202652
-0.0106881
-0.00169285
0.0044027
0.00482825
-0.000389714
-0.00618237
-0.00722223
-0.00306675
0.00200326
0.00270492
-0.000389802
-0.00197009
-0.00199233
-0.00464466
-0.00991713
-0.0152047
-0.0212992
-0.0304724
-0.0404601
-0.0448887
-0.0395413
-0.0236206
0.00285339
0.036212
0.0683067
0.0924439
0.105802
0.109142
0.105793
0.0966671
0.0794499
0.0528898
0.019049
-0.016207
-0.0454023
-0.0632998
-0.0685582
-0.0632872
-0.0516861
-0.0379413
-0.0250508
-0.0147459
-0.00731385
-0.00253402
0.000247166
0.00166444
0.00216891
0.00221465
0.00193594
0.00158715
0.00115867
0.000782175
0.00041948
0.000131719
-0.000109706
-0.000281756
-0.000399117
-0.000455666
-0.000455677
-0.000399143
-0.000281799
-0.000109753
0.000131675
0.000419454
0.000782184
0.00115873
0.00158728
0.00193616
0.00221498
0.00216933
0.00166497
0.000247777
-0.00253336
-0.00731321
-0.0147454
-0.0250505
-0.0379415
-0.0516869
-0.0632887
-0.0685605
-0.0633023
-0.0454045
-0.0162081
0.0190497
0.0528922
0.0794532
0.0966705
0.105796
0.109145
0.105805
0.0924469
0.0683089
0.036212
0.00285022
-0.0236258
-0.0395472
-0.0448942
-0.0404635
-0.0304724
-0.0212973
-0.0152031
-0.00991612
-0.00464333
-0.00199133
-0.00197041
-0.000389711
0.00270705
0.00200482
0.00433712
0.00849293
0.004825
-0.00199233
-0.00792969
-0.0135625
-0.0194664
-0.0237849
-0.0269283
-0.0332217
-0.0430941
-0.0491004
-0.0428662
-0.021074
0.012919
0.0505929
0.0849352
0.111964
0.127702
0.131519
0.126057
0.112471
0.0908761
0.0612369
0.0248757
-0.0131301
-0.0459521
-0.0681181
-0.0772383
-0.0747118
-0.0645261
-0.0509133
-0.0374817
-0.026253
-0.0177788
-0.0120159
-0.00813243
-0.00566274
-0.00392833
-0.00265913
-0.00163024
-0.000708975
7.05506e-05
0.000812448
0.00140805
0.0019547
0.0023551
0.00268506
0.00288448
0.00299409
0.0029941
0.00288451
0.0026851
0.00235513
0.00195473
0.00140803
0.000812366
7.03686e-05
-0.000709266
-0.00163068
-0.00265971
-0.00392907
-0.00566361
-0.00813337
-0.0120169
-0.0177797
-0.0262538
-0.0374824
-0.0509139
-0.0645268
-0.0747127
-0.0772395
-0.0681193
-0.045953
-0.0131302
0.0248768
0.0612391
0.0908788
0.112474
0.12606
0.131522
0.127706
0.111967
0.0849378
0.0505938
0.0129164
-0.0210806
-0.0428743
-0.0491066
-0.0430961
-0.0332201
-0.0269266
-0.0237852
-0.0194676
-0.0135632
-0.00792964
-0.00199132
0.00482826
0.00849783
0.00433965
0.00343891
0.00747687
0.00439858
-0.00464466
-0.0135625
-0.0195031
-0.0247951
-0.0302151
-0.0348999
-0.0401645
-0.0458972
-0.0469916
-0.036023
-0.00956026
0.0266351
0.0639379
0.0989546
0.128187
0.146257
0.151158
0.142869
0.123418
0.0964559
0.063323
0.0254326
-0.0134074
-0.0480258
-0.0729315
-0.0847699
-0.0840517
-0.0739907
-0.0589396
-0.0432562
-0.0293739
-0.0187083
-0.0112486
-0.00635353
-0.003486
-0.0016884
-0.000778133
-0.000132141
0.000182015
0.000462117
0.000621571
0.00076596
0.000867743
0.000941614
0.00100059
0.00103108
0.00105037
0.00105038
0.00103109
0.00100062
0.00094163
0.000867768
0.000765974
0.00062158
0.000462104
0.000181975
-0.000132209
-0.000778254
-0.00168853
-0.00348619
-0.00635368
-0.0112488
-0.0187084
-0.0293739
-0.0432563
-0.0589398
-0.0739912
-0.0840527
-0.0847714
-0.0729333
-0.0480274
-0.0134084
0.0254325
0.0633241
0.096458
0.123421
0.142874
0.151163
0.146262
0.128191
0.0989571
0.0639388
0.0266337
-0.00956563
-0.0360311
-0.0469986
-0.0459006
-0.0401647
-0.0348995
-0.0302156
-0.0247959
-0.019504
-0.0135631
-0.00464332
0.0044027
0.00748148
0.00344086
0.000157111
0.000643829
-0.00169583
-0.00991713
-0.0194664
-0.0247951
-0.0278095
-0.0333306
-0.0414143
-0.0470361
-0.0461379
-0.0379972
-0.0204518
0.00768811
0.0414223
0.076367
0.110705
0.139799
0.159219
0.165051
0.154339
0.130712
0.0995736
0.0636675
0.0252734
-0.0136495
-0.0494858
-0.0767925
-0.0915249
-0.0928547
-0.0828123
-0.0660502
-0.0473218
-0.0300091
-0.0165437
-0.00696022
-0.00125077
0.00173051
0.00278259
0.00259312
0.00191723
0.000811249
-0.000160956
-0.00123666
-0.00202542
-0.00279629
-0.00330475
-0.00374449
-0.00398692
-0.0041278
-0.00412783
-0.00398703
-0.00374466
-0.00330497
-0.00279654
-0.00202566
-0.00123686
-0.000161057
0.000811261
0.00191745
0.00259355
0.00278333
0.00173152
-0.00124947
-0.00695866
-0.016542
-0.0300075
-0.0473207
-0.0660497
-0.0828129
-0.0928565
-0.0915276
-0.0767958
-0.049489
-0.0136518
0.0252723
0.063668
0.0995759
0.130715
0.154344
0.165057
0.159224
0.139803
0.110708
0.076368
0.0414219
0.00768516
-0.020458
-0.0380046
-0.0461445
-0.0470403
-0.0414152
-0.0333292
-0.0278085
-0.0247959
-0.0194676
-0.00991612
-0.00169286
0.000646003
0.000157635
-0.00430967
-0.0093713
-0.0106892
-0.0152047
-0.0237849
-0.0302151
-0.0333306
-0.0390574
-0.0471801
-0.0478436
-0.0364993
-0.0181502
0.00374005
0.0284134
0.0554681
0.0858749
0.116976
0.144128
0.1638
0.169266
0.157392
0.132817
0.100925
0.066558
0.0317316
-0.00422468
-0.0395735
-0.0700641
-0.0911151
-0.0995949
-0.095581
-0.0827315
-0.0650343
-0.046949
-0.0311666
-0.0186234
-0.00989799
-0.00372032
-1.89969e-05
0.00253741
0.00399592
0.00502141
0.0056821
0.00611111
0.00647133
0.0066493
0.00685069
0.00691569
0.00700626
0.00702146
0.00702148
0.00700635
0.00691582
0.00685089
0.00664952
0.0064716
0.00611138
0.00568239
0.00502166
0.00399613
0.00253758
-1.89291e-05
-0.00372028
-0.0098981
-0.0186235
-0.0311669
-0.0469495
-0.065035
-0.0827328
-0.0955828
-0.0995972
-0.0911176
-0.0700662
-0.0395752
-0.00422545
0.0317317
0.0665588
0.100927
0.13282
0.157397
0.169272
0.163805
0.144132
0.116978
0.0858756
0.0554678
0.0284126
0.00373768
-0.0181548
-0.0365062
-0.0478512
-0.0471845
-0.039057
-0.0333292
-0.0302155
-0.0237852
-0.0152031
-0.0106881
-0.00937277
-0.00431104
-0.00740176
-0.0177096
-0.0202643
-0.0212992
-0.0269283
-0.0348999
-0.0414143
-0.0471801
-0.0490744
-0.0393062
-0.0176998
0.00825062
0.0317946
0.0506207
0.069666
0.0937676
0.120089
0.144845
0.16264
0.165662
0.152717
0.127407
0.0958594
0.0650237
0.0357864
0.00591306
-0.0253891
-0.0561832
-0.0817178
-0.0968732
-0.0998996
-0.0922983
-0.07736
-0.0601436
-0.0432459
-0.0292816
-0.0185051
-0.010629
-0.00538165
-0.00144216
0.000954331
0.00303808
0.00425293
0.00545644
0.00614896
0.00684295
0.00723538
0.00758924
0.0077675
0.00787482
0.00787485
0.00776763
0.00758943
0.00723565
0.00684326
0.0061493
0.00545678
0.00425321
0.00303831
0.000954384
-0.00144223
-0.005382
-0.0106295
-0.0185059
-0.0292827
-0.0432472
-0.0601452
-0.0773617
-0.0923002
-0.0999015
-0.0968748
-0.0817189
-0.0561835
-0.0253887
0.00591365
0.0357869
0.0650239
0.0958599
0.127409
0.152721
0.165667
0.162645
0.144849
0.120091
0.0937679
0.0696653
0.0506212
0.031796
0.00825026
-0.017704
-0.0393143
-0.0490826
-0.0471845
-0.0414152
-0.0348994
-0.0269266
-0.0212973
-0.0202652
-0.0177133
-0.00740396
-0.00707667
-0.020084
-0.0281598
-0.0304724
-0.0332217
-0.0401645
-0.0470361
-0.0478436
-0.0393062
-0.021578
0.00316181
0.0315066
0.0559416
0.0720306
0.0860355
0.103333
0.123068
0.142963
0.156509
0.157653
0.144794
0.118882
0.0871901
0.0573234
0.0311074
0.00694392
-0.0182939
-0.0449779
-0.0692973
-0.0858718
-0.0918211
-0.0865935
-0.0735652
-0.0571971
-0.0407781
-0.0277604
-0.0179191
-0.0121391
-0.00876407
-0.00742776
-0.007161
-0.00728156
-0.00782153
-0.00806159
-0.00854101
-0.00861765
-0.00888159
-0.0088612
-0.00896407
-0.00894468
-0.00894475
-0.00896428
-0.00886153
-0.00888206
-0.00861821
-0.0085417
-0.00806232
-0.00782235
-0.00728233
-0.00716175
-0.00742835
-0.00876446
-0.0121392
-0.0179188
-0.0277599
-0.0407772
-0.0571962
-0.0735643
-0.0865929
-0.091821
-0.0858718
-0.0692976
-0.0449783
-0.0182943
0.00694289
0.0311057
0.0573215
0.0871887
0.118883
0.144797
0.157658
0.156514
0.142968
0.123071
0.103334
0.0860358
0.072032
0.0559443
0.0315076
0.00315953
-0.0215836
-0.0393143
-0.0478512
-0.0470403
-0.0401647
-0.0332201
-0.0304724
-0.0281622
-0.0200865
-0.00707753
-0.00476461
-0.0176753
-0.0322975
-0.0404601
-0.0430941
-0.0458972
-0.0461379
-0.0364993
-0.0176998
0.00316181
0.0255477
0.0518887
0.0756141
0.0908771
0.100982
0.109756
0.120237
0.133033
0.143296
0.146428
0.137712
0.115537
0.0859247
0.0559656
0.0302562
0.0082953
-0.0140325
-0.0388249
-0.0637009
-0.0835313
-0.0937341
-0.0918945
-0.080756
-0.0635286
-0.0451891
-0.0289415
-0.0160137
-0.00759554
-0.0019082
0.000610033
0.00211255
0.00215997
0.00210285
0.00159156
0.00118356
0.000750262
0.000395363
0.000149748
-4.08301e-05
-0.000117669
-0.000117667
-4.08903e-05
0.000149695
0.000395255
0.000750171
0.00118344
0.00159147
0.00210277
0.00215993
0.00211263
0.00061017
-0.00190782
-0.00759507
-0.0160129
-0.0289407
-0.0451881
-0.0635278
-0.0807554
-0.0918943
-0.0937345
-0.083532
-0.0637018
-0.038826
-0.0140339
0.00829337
0.0302537
0.0559634
0.0859237
0.115539
0.137716
0.146432
0.143301
0.133037
0.12024
0.109758
0.100984
0.0908796
0.075617
0.0518897
0.0255464
0.00315953
-0.017704
-0.0365062
-0.0461444
-0.0459006
-0.0430961
-0.0404635
-0.0323004
-0.0176749
-0.00476348
-0.00385393
-0.0156579
-0.0321745
-0.0448887
-0.0491004
-0.0469916
-0.0379972
-0.0181502
0.00825062
0.0315066
0.0518887
0.0736408
0.0929199
0.105567
0.110984
0.110817
0.111396
0.116003
0.122692
0.128398
0.126659
0.113229
0.0901763
0.0634067
0.0390508
0.0178201
-0.00385335
-0.0293832
-0.0575919
-0.0836467
-0.100945
-0.105508
-0.098021
-0.0810238
-0.0605179
-0.0396275
-0.022032
-0.00834559
0.00146042
0.00765299
0.0118717
0.0138662
0.0153676
0.01565
0.016049
0.0158134
0.0158263
0.0155607
0.0155028
0.0153974
0.0153975
0.015503
0.0155611
0.0158268
0.015814
0.0160499
0.0156509
0.0153687
0.0138674
0.011873
0.00765418
0.00146158
-0.00834464
-0.0220313
-0.0396272
-0.0605184
-0.0810249
-0.0980229
-0.105511
-0.100948
-0.0836494
-0.0575938
-0.0293843
-0.00385397
0.0178195
0.0390502
0.0634063
0.090177
0.113231
0.126662
0.128401
0.122695
0.116005
0.111397
0.110819
0.110986
0.10557
0.0929229
0.073643
0.0518898
0.0315076
0.00825027
-0.0181547
-0.0380046
-0.0469986
-0.0491067
-0.0448942
-0.0321771
-0.0156567
-0.00385256
-0.00510105
-0.015896
-0.0283223
-0.0395413
-0.0428662
-0.036023
-0.0204518
0.00374005
0.0317946
0.0559416
0.0756141
0.0929199
0.107727
0.118855
0.120983
0.113071
0.103111
0.0964924
0.09592
0.101583
0.106353
0.102904
0.0889477
0.0682178
0.0474381
0.029689
0.012277
-0.00936315
-0.0362564
-0.0651998
-0.088798
-0.101921
-0.102351
-0.091933
-0.0756308
-0.0569723
-0.0405408
-0.0267474
-0.0170541
-0.0100867
-0.00561282
-0.00265905
-0.000571254
0.000725359
0.00191522
0.00258408
0.00332902
0.00368384
0.00405761
0.0041719
0.00417189
0.0040576
0.0036838
0.00332897
0.00258397
0.00191509
0.000725133
-0.000571516
-0.00265941
-0.00561325
-0.0100872
-0.0170547
-0.026748
-0.0405415
-0.0569731
-0.0756318
-0.0919343
-0.102352
-0.101922
-0.0887994
-0.0652007
-0.0362564
-0.00936253
0.0122779
0.0296897
0.0474384
0.0682182
0.0889485
0.102905
0.106354
0.101583
0.0959193
0.0964923
0.103113
0.113074
0.120987
0.118859
0.10773
0.0929229
0.075617
0.0559443
0.031796
0.00373768
-0.020458
-0.0360311
-0.0428743
-0.0395472
-0.0283248
-0.0158966
-0.00510121
-0.00579333
-0.0144276
-0.0198004
-0.0236206
-0.021074
-0.00956026
0.00768811
0.0284134
0.0506207
0.0720306
0.0908771
0.105567
0.118855
0.129986
0.129147
0.115105
0.0963529
0.0794418
0.0720015
0.0762294
0.0846902
0.088859
0.0824808
0.0665433
0.0486067
0.0340728
0.0216959
0.00666805
-0.0150712
-0.0424797
-0.0687654
-0.087925
-0.0950118
-0.0908132
-0.0785512
-0.0624962
-0.047165
-0.0338743
-0.0245466
-0.0177431
-0.0138527
-0.0111393
-0.0097293
-0.00863966
-0.00798204
-0.00742292
-0.00699864
-0.00668231
-0.00645041
-0.00634363
-0.00634368
-0.00645053
-0.00668255
-0.00699895
-0.00742337
-0.00798259
-0.00864036
-0.00973013
-0.0111403
-0.0138538
-0.0177442
-0.0245478
-0.0338754
-0.047166
-0.0624971
-0.078552
-0.0908138
-0.0950121
-0.087925
-0.0687647
-0.0424784
-0.0150692
0.00666999
0.0216971
0.0340732
0.0486063
0.0665429
0.0824808
0.0888589
0.0846892
0.076227
0.0719982
0.0794398
0.0963538
0.115109
0.129154
0.129993
0.118859
0.10557
0.0908796
0.0720319
0.0506212
0.0284126
0.00768514
-0.00956565
-0.0210806
-0.0236258
-0.0198036
-0.0144304
-0.00579485
-0.0032275
-0.00606805
-0.00331814
0.00285339
0.012919
0.0266351
0.0414223
0.0554681
0.069666
0.0860355
0.100982
0.110984
0.120983
0.129147
0.125883
0.11175
0.091246
0.0700106
0.0586037
0.0598855
0.0693882
0.0791041
0.0784452
0.0655658
0.0473604
0.031019
0.0187994
0.00709237
-0.0101333
-0.0335993
-0.0585645
-0.0786754
-0.0873295
-0.0844582
-0.0717288
-0.0543419
-0.0366978
-0.0214304
-0.0106086
-0.00320054
0.000421018
0.00233405
0.00236113
0.00205923
0.00110535
0.000355102
-0.000499363
-0.00106016
-0.00151375
-0.00171112
-0.00171115
-0.00151378
-0.00106022
-0.000499413
0.000355057
0.00110535
0.00205931
0.00236129
0.00233437
0.000421464
-0.00319987
-0.0106078
-0.0214294
-0.0366968
-0.0543408
-0.071728
-0.0844577
-0.0873293
-0.0786754
-0.0585643
-0.0335989
-0.0101328
0.00709275
0.0187989
0.031018
0.0473592
0.065565
0.0784452
0.0791038
0.0693866
0.0598829
0.0586005
0.0700088
0.0912474
0.111754
0.12589
0.129154
0.120987
0.110986
0.100984
0.0860357
0.0696653
0.0554678
0.0414219
0.0266337
0.0129164
0.00285021
-0.00332144
-0.00607141
-0.00322915
0.00282539
0.0103166
0.0218072
0.036212
0.0505929
0.0639379
0.076367
0.0858749
0.0937676
0.103333
0.109756
0.110817
0.113071
0.115105
0.11175
0.10216
0.0837945
0.0624974
0.0494113
0.0481506
0.0592159
0.0745438
0.0805286
0.0722444
0.0536979
0.0337913
0.0187804
0.00693118
-0.00831705
-0.0295533
-0.0549861
-0.0778301
-0.0906589
-0.0917032
-0.080671
-0.0633661
-0.0434392
-0.0253705
-0.0110581
-0.000601579
0.00572205
0.00984194
0.0115091
0.0126128
0.0125748
0.0126764
0.0123066
0.0122049
0.0119612
0.0119089
0.0119089
0.0119613
0.012205
0.0123068
0.0126766
0.012575
0.0126132
0.0115095
0.0098425
0.00572266
-0.000600783
-0.0110573
-0.0253696
-0.0434384
-0.0633655
-0.0806706
-0.0917032
-0.0906592
-0.0778307
-0.0549866
-0.0295537
-0.00831764
0.00693032
0.0187789
0.0337898
0.0536971
0.0722447
0.0805296
0.0745444
0.0592144
0.0481478
0.0494085
0.062496
0.0837964
0.102164
0.111754
0.115109
0.113074
0.110819
0.109758
0.103334
0.0937678
0.0858756
0.076368
0.0639388
0.0505938
0.036212
0.0218057
0.0103149
0.00282464
0.0100352
0.0294571
0.0488742
0.0683067
0.0849352
0.0989546
0.110705
0.116976
0.120089
0.123068
0.120237
0.111396
0.103111
0.0963529
0.091246
0.0837945
0.0683318
0.0513861
0.0398893
0.0379914
0.0506121
0.0704198
0.0841818
0.0834068
0.0678574
0.0467407
0.0290311
0.0154396
0.000273535
-0.0208255
-0.0488445
-0.07661
-0.0968241
-0.104719
-0.098651
-0.0838636
-0.0632987
-0.0434925
-0.0256812
-0.0121982
-0.00238909
0.00436859
0.00857056
0.0116156
0.0132291
0.0146578
0.015275
0.0159539
0.0161729
0.0163789
0.0163789
0.016173
0.0159541
0.0152753
0.0146581
0.0132295
0.011616
0.00857086
0.00436889
-0.00238893
-0.0121981
-0.0256813
-0.0434929
-0.0632993
-0.0838647
-0.0986524
-0.104721
-0.0968259
-0.0766116
-0.0488456
-0.0208259
0.000273264
0.0154393
0.0290306
0.0467403
0.0678581
0.0834087
0.0841839
0.0704211
0.0506112
0.0379888
0.0398868
0.0513843
0.0683317
0.0837964
0.0912474
0.0963538
0.103113
0.111397
0.12024
0.123071
0.120091
0.116978
0.110708
0.0989571
0.0849379
0.0683089
0.0488753
0.0294579
0.0100357
0.015132
0.0434769
0.0691314
0.0924439
0.111964
0.128187
0.139799
0.144128
0.144845
0.142963
0.133033
0.116003
0.0964924
0.0794418
0.0700106
0.0624974
0.0513861
0.0400727
0.0296263
0.0266138
0.0385326
0.0604891
0.0819508
0.0902993
0.0806446
0.0608727
0.0417647
0.0272532
0.0139007
-0.00450438
-0.0314335
-0.0609113
-0.0867642
-0.101019
-0.101777
-0.0917724
-0.0742706
-0.0562056
-0.0387154
-0.0258854
-0.0158576
-0.00979913
-0.00558425
-0.0032464
-0.00173418
-0.000800396
-0.00025994
0.000169036
0.000358681
0.000493611
0.000493619
0.000358615
0.000168985
-0.000260072
-0.000800515
-0.00173438
-0.00324661
-0.00558452
-0.00979942
-0.0158579
-0.0258858
-0.0387157
-0.0562062
-0.0742712
-0.0917734
-0.101778
-0.10102
-0.0867656
-0.0609121
-0.031434
-0.0045042
0.0139009
0.0272533
0.0417649
0.0608734
0.0806466
0.0903023
0.0819532
0.0604899
0.0385314
0.026611
0.029624
0.040071
0.0513842
0.062496
0.0700088
0.0794398
0.0964923
0.116005
0.133037
0.142968
0.144849
0.144132
0.139803
0.128191
0.111968
0.0924469
0.0691338
0.043479
0.0151331
0.0168735
0.0493995
0.0794479
0.105802
0.127702
0.146257
0.159219
0.1638
0.16264
0.156509
0.143296
0.122692
0.09592
0.0720015
0.0586037
0.0494113
0.0398893
0.0296263
0.0181363
0.0136664
0.0226611
0.0446148
0.072136
0.089274
0.0874804
0.0714716
0.0524409
0.037847
0.0271012
0.0125661
-0.0107434
-0.0398056
-0.0691877
-0.0886726
-0.0960752
-0.0905324
-0.0766055
-0.0597671
-0.0427842
-0.0299223
-0.0195833
-0.0137985
-0.00947929
-0.00780853
-0.00640124
-0.00615456
-0.00575089
-0.00578603
-0.00567654
-0.00570105
-0.00570107
-0.00567667
-0.0057862
-0.00575117
-0.00615488
-0.00640165
-0.00780901
-0.00947978
-0.0137991
-0.0195838
-0.0299229
-0.0427846
-0.0597677
-0.0766061
-0.090533
-0.0960759
-0.0886731
-0.069188
-0.0398052
-0.0107426
0.0125672
0.0271021
0.0378475
0.0524415
0.071473
0.0874828
0.0892771
0.072138
0.0446144
0.0226588
0.0136629
0.0181329
0.0296239
0.0398868
0.0494085
0.0586004
0.0719982
0.0959193
0.122695
0.143301
0.156515
0.162645
0.163805
0.159224
0.146262
0.127706
0.105805
0.0794504
0.0494014
0.0168742
0.0166199
0.0499546
0.0819065
0.109142
0.131519
0.151158
0.165051
0.169266
0.165662
0.157653
0.146428
0.128398
0.101583
0.0762294
0.0598855
0.0481506
0.0379914
0.0266138
0.0136664
0.00543457
0.00773139
0.0259482
0.0552687
0.0796007
0.0868859
0.0762876
0.0581882
0.0430473
0.0334169
0.0220795
0.00332031
-0.0237529
-0.0537293
-0.0763542
-0.0880722
-0.0851891
-0.0733225
-0.0557623
-0.0380817
-0.0232434
-0.0117051
-0.00472614
0.000183295
0.00202774
0.00350651
0.00343396
0.0037242
0.00334134
0.00335565
0.00319266
0.00319266
0.00335564
0.00334133
0.00372419
0.00343393
0.00350652
0.00202771
0.000183357
-0.00472614
-0.0117049
-0.0232433
-0.0380816
-0.0557623
-0.0733227
-0.0851893
-0.0880727
-0.0763544
-0.0537294
-0.0237524
0.00332139
0.0220806
0.033418
0.043048
0.0581891
0.0762893
0.0868884
0.0796029
0.0552693
0.0259461
0.00772772
0.00543071
0.0136628
0.0266109
0.0379887
0.0481478
0.0598829
0.076227
0.101583
0.128401
0.146432
0.157658
0.165667
0.169272
0.165057
0.151163
0.131522
0.109145
0.0819088
0.0499557
0.0166201
0.0158505
0.0482865
0.0797659
0.105793
0.126057
0.142869
0.154339
0.157392
0.152717
0.144794
0.137712
0.126659
0.106353
0.0846902
0.0693882
0.0592159
0.0506121
0.0385326
0.0226611
0.00773139
0.000700381
0.0105115
0.0359878
0.0639807
0.0785605
0.0736795
0.0574713
0.042004
0.0331579
0.0254377
0.012164
-0.0112797
-0.0399444
-0.0652738
-0.0808241
-0.0818142
-0.072722
-0.0555519
-0.0378618
-0.0211483
-0.00866857
0.000146391
0.00569736
0.00859603
0.0103427
0.0107393
0.0111327
0.0109276
0.0109841
0.0108656
0.0108656
0.0109842
0.0109276
0.0111327
0.0107393
0.0103428
0.0085961
0.00569753
0.000146586
-0.0086683
-0.021148
-0.0378615
-0.0555515
-0.0727218
-0.0818139
-0.0808241
-0.0652736
-0.0399439
-0.0112788
0.0121652
0.0254386
0.0331584
0.0420041
0.0574716
0.0736807
0.0785621
0.0639814
0.0359863
0.0105079
0.000695803
0.00772769
0.0226587
0.0385313
0.0506111
0.0592144
0.0693867
0.0846892
0.106354
0.126662
0.137716
0.144797
0.152721
0.157397
0.154344
0.142874
0.12606
0.105796
0.0797682
0.0482872
0.0158505
0.014789
0.044929
0.0737572
0.0966671
0.112471
0.123418
0.130712
0.132817
0.127407
0.118882
0.115537
0.113229
0.102904
0.088859
0.0791041
0.0745438
0.0704198
0.0604891
0.0446148
0.0259482
0.0105115
0.00906112
0.0258515
0.0517026
0.0693594
0.0686327
0.0533234
0.0363302
0.0264138
0.0207672
0.0120896
-0.0069505
-0.0332546
-0.0600793
-0.0784063
-0.0833394
-0.0763965
-0.0601133
-0.0417341
-0.0232054
-0.00910437
0.00188806
0.00851017
0.0129143
0.0150848
0.0163358
0.0168394
0.0170607
0.0171345
0.0171457
0.0171457
0.0171346
0.0170607
0.0168395
0.0163359
0.015085
0.0129145
0.00851036
0.00188832
-0.00910413
-0.0232051
-0.0417338
-0.060113
-0.0763964
-0.0833393
-0.0784062
-0.0600792
-0.033254
-0.00694973
0.0120904
0.0207675
0.0264134
0.0363294
0.0533228
0.0686328
0.0693597
0.0517018
0.0258488
0.0090571
0.0105079
0.0259461
0.0446143
0.0604898
0.0704211
0.0745444
0.0791039
0.0888589
0.102905
0.113231
0.115539
0.118883
0.127409
0.13282
0.130715
0.123421
0.112474
0.0966705
0.0737599
0.0449299
0.0147889
0.0127172
0.037987
0.0612666
0.0794499
0.0908761
0.0964559
0.0995736
0.100925
0.0958594
0.0871901
0.0859247
0.0901763
0.0889477
0.0824808
0.0784452
0.0805286
0.0841818
0.0819508
0.072136
0.0552687
0.0359878
0.0258515
0.0330704
0.0535294
0.0712712
0.0719768
0.0551693
0.0336045
0.0185435
0.0111651
0.00435729
-0.0110275
-0.0347506
-0.0617539
-0.0821372
-0.0902864
-0.0852242
-0.0698916
-0.0504088
-0.0302838
-0.0138854
-0.000900959
0.00741156
0.0131532
0.0161343
0.018103
0.0188994
0.0194637
0.0196186
0.0197326
0.0197327
0.0196187
0.0194638
0.0188996
0.0181032
0.0161345
0.0131535
0.00741189
-0.000900553
-0.013885
-0.0302833
-0.0504085
-0.0698915
-0.0852242
-0.0902867
-0.0821376
-0.0617543
-0.0347509
-0.0110277
0.00435686
0.011164
0.0185418
0.0336028
0.0551682
0.0719767
0.0712712
0.0535284
0.033068
0.0258489
0.0359863
0.0552693
0.072138
0.0819532
0.084184
0.0805297
0.0784452
0.0824809
0.0889485
0.090177
0.0859238
0.0871887
0.0958598
0.100927
0.0995759
0.0964581
0.0908788
0.0794532
0.0612692
0.0379881
0.0127173
0.00886371
0.0257043
0.0404561
0.0528898
0.0612369
0.063323
0.0636675
0.066558
0.0650237
0.0573234
0.0559656
0.0634067
0.0682178
0.0665433
0.0655658
0.0722444
0.0834068
0.0902993
0.089274
0.0796007
0.0639807
0.0517026
0.0535294
0.0706414
0.0890522
0.0919396
0.074467
0.0474418
0.0246228
0.0114558
0.00225825
-0.0128563
-0.0365106
-0.065497
-0.0897666
-0.102737
-0.101472
-0.0883837
-0.0690479
-0.0478494
-0.0294378
-0.0144297
-0.00412733
0.0031469
0.00739684
0.0102513
0.0117243
0.0127318
0.0131776
0.0134272
0.0134272
0.0131777
0.0127319
0.0117244
0.0102514
0.00739691
0.00314699
-0.00412726
-0.0144296
-0.0294377
-0.0478495
-0.0690481
-0.0883842
-0.101472
-0.102738
-0.0897678
-0.0654982
-0.0365116
-0.0128574
0.00225697
0.0114541
0.0246207
0.0474402
0.0744667
0.0919405
0.0890532
0.0706415
0.0535284
0.0517019
0.0639814
0.0796029
0.0892772
0.0903023
0.0834087
0.0722447
0.065565
0.0665429
0.0682182
0.0634063
0.0559634
0.0573216
0.0650238
0.0665588
0.063668
0.0633242
0.0612391
0.0528922
0.0404578
0.0257053
0.008864
0.00349796
0.00924116
0.0134412
0.019049
0.0248757
0.0254326
0.0252734
0.0317316
0.0357864
0.0311074
0.0302562
0.0390508
0.0474381
0.0486067
0.0473604
0.0536979
0.0678574
0.0806446
0.0874804
0.0868859
0.0785605
0.0693594
0.0712712
0.0890522
0.1122
0.122377
0.109385
0.0810839
0.0524015
0.0327898
0.0193446
0.00230009
-0.0233988
-0.0563432
-0.0868428
-0.107388
-0.112919
-0.105143
-0.0886786
-0.0687048
-0.0501247
-0.0344222
-0.0232212
-0.0151049
-0.0102082
-0.00681662
-0.00500174
-0.00371374
-0.00312133
-0.00278358
-0.0027836
-0.00312138
-0.00371384
-0.00500188
-0.00681682
-0.0102085
-0.0151052
-0.0232217
-0.0344228
-0.0501254
-0.0687056
-0.0886797
-0.105144
-0.11292
-0.107389
-0.0868445
-0.0563446
-0.0233998
0.00229924
0.0193437
0.0327888
0.0524007
0.081084
0.109387
0.12238
0.112202
0.0890533
0.0712713
0.0693598
0.0785622
0.0868884
0.0874829
0.0806466
0.0678582
0.0536971
0.0473593
0.0486062
0.0474384
0.0390501
0.0302537
0.0311057
0.0357869
0.0317317
0.0252723
0.0254325
0.0248768
0.0190497
0.0134415
0.00924163
0.00349825
-0.00211996
-0.00775493
-0.0143708
-0.016207
-0.0131301
-0.0134074
-0.0136495
-0.00422468
0.00591306
0.00694392
0.0082953
0.0178201
0.029689
0.0340728
0.031019
0.0337913
0.0467407
0.0608727
0.0714716
0.0762876
0.0736795
0.0686327
0.0719768
0.0919396
0.122377
0.143843
0.141543
0.11888
0.0900498
0.068143
0.0533345
0.0365852
0.0110361
-0.0240355
-0.0598025
-0.0877743
-0.101193
-0.100314
-0.0888193
-0.0722246
-0.0555077
-0.0411203
-0.0306932
-0.0234056
-0.0191692
-0.016497
-0.0152531
-0.0144624
-0.0141938
-0.0140304
-0.0140304
-0.0141939
-0.0144626
-0.0152534
-0.0164974
-0.0191697
-0.0234061
-0.0306938
-0.0411209
-0.0555084
-0.0722254
-0.0888203
-0.100315
-0.101195
-0.0877755
-0.0598035
-0.0240361
0.011036
0.0365854
0.0533348
0.0681432
0.0900505
0.118881
0.141546
0.143847
0.12238
0.0919406
0.0719768
0.0686329
0.0736807
0.0762893
0.071473
0.0608734
0.0467403
0.0337898
0.031018
0.0340731
0.0296896
0.0178196
0.00829342
0.0069429
0.00591363
-0.00422543
-0.0136518
-0.0134084
-0.0131302
-0.0162081
-0.0143719
-0.00775495
-0.00211972
-0.00662176
-0.021303
-0.0367143
-0.0454023
-0.0459521
-0.0480258
-0.0494858
-0.0395735
-0.0253891
-0.0182939
-0.0140325
-0.00385335
0.012277
0.0216959
0.0187994
0.0187804
0.0290311
0.0417647
0.0524409
0.0581882
0.0574713
0.0533234
0.0551693
0.074467
0.109385
0.141543
0.152411
0.139898
0.116258
0.0971206
0.0855312
0.0738059
0.0535307
0.0212458
-0.015166
-0.047238
-0.0662893
-0.0710718
-0.0642234
-0.0508694
-0.0364557
-0.0236245
-0.0145856
-0.00852493
-0.00554166
-0.0040183
-0.00380588
-0.00383649
-0.00414114
-0.00427139
-0.00427143
-0.00414126
-0.0038367
-0.00380616
-0.00401865
-0.00554206
-0.00852537
-0.0145861
-0.0236249
-0.0364561
-0.0508698
-0.0642238
-0.0710721
-0.0662896
-0.0472381
-0.0151656
0.0212466
0.053532
0.0738074
0.0855326
0.0971218
0.11626
0.1399
0.152414
0.141546
0.109387
0.0744668
0.0551683
0.0533228
0.0574716
0.058189
0.0524414
0.0417648
0.0290306
0.018779
0.0187989
0.0216971
0.0122779
-0.00385392
-0.0140339
-0.0182943
-0.0253887
-0.0395752
-0.049489
-0.0480274
-0.0459531
-0.0454046
-0.0367163
-0.0213033
-0.00662156
-0.00914628
-0.0288859
-0.0494808
-0.0632998
-0.0681181
-0.0729315
-0.0767925
-0.0700641
-0.0561832
-0.0449779
-0.0388249
-0.0293832
-0.00936315
0.00666805
0.00709237
0.00693118
0.0154396
0.0272532
0.037847
0.0430473
0.042004
0.0363302
0.0336045
0.0474418
0.0810839
0.11888
0.139898
0.136831
0.11874
0.102989
0.0952928
0.0902256
0.0779449
0.0525011
0.0202403
-0.0112375
-0.0311688
-0.0377226
-0.0315913
-0.0182593
-0.00295034
0.0110508
0.0211343
0.0280722
0.03143
0.0332115
0.0333284
0.0332534
0.0327893
0.0326105
0.0326105
0.0327893
0.0332534
0.0333285
0.0332116
0.03143
0.0280723
0.0211345
0.0110511
-0.00295007
-0.0182589
-0.0315909
-0.0377222
-0.0311684
-0.0112368
0.0202413
0.0525025
0.0779466
0.0902271
0.0952941
0.10299
0.118742
0.136833
0.1399
0.118881
0.081084
0.0474403
0.0336028
0.0363293
0.0420041
0.043048
0.0378474
0.0272532
0.0154393
0.00693037
0.00709277
0.00666997