/*--------------------------------*- C++ -*----------------------------------*\
  =========                 |
  \\      /  F ield         | OpenFOAM: The Open Source CFD Toolbox
   \\    /   O peration     | Website:  https://openfoam.org
    \\  /    A nd           | Version:  10
     \\/     M anipulation  |
\*---------------------------------------------------------------------------*/
FoamFile
{
    format      ascii;
    class       volScalarField;
    location    "25";
    object      h_0;
}
// * * * * * * * * * * * * * * * * * * * * * * * * * * * * * * * * * * * * * //

dimensions      [0 1 0 0 0 0 0];

internalField   nonuniform List<scalar> 
10000
(
-0.00349386
-0.00655675
-0.00309048
0.00208179
0.00441726
0.00346824
0.000136332
-0.00438604
-0.00751556
-0.00715703
-0.00475869
-0.00379465
-0.00505222
-0.00575259
-0.00314703
0.00294805
0.0101563
0.015219
0.0169204
0.0166383
0.0158479
0.0147507
0.0126269
0.00872716
0.00334237
-0.00225671
-0.00670947
-0.00917473
-0.00960309
-0.00857989
-0.00685972
-0.00508867
-0.00366867
-0.00270867
-0.0021898
-0.00198336
-0.00196526
-0.00203886
-0.00212066
-0.00218822
-0.00220625
-0.00218914
-0.0021289
-0.00204697
-0.00194733
-0.00184679
-0.00175259
-0.00167483
-0.00161929
-0.00159047
-0.00159048
-0.00161934
-0.00167491
-0.0017527
-0.00184694
-0.00194752
-0.0020472
-0.00212919
-0.00218947
-0.00220661
-0.00218861
-0.00212106
-0.00203925
-0.00196562
-0.00198367
-0.00219003
-0.0027088
-0.0036687
-0.00508859
-0.00685956
-0.00857968
-0.00960287
-0.00917453
-0.00670925
-0.00225646
0.00334266
0.00872746
0.0126271
0.0147506
0.0158478
0.0166385
0.0169212
0.01522
0.0101568
0.00294728
-0.0031487
-0.00575412
-0.00505235
-0.00379325
-0.00475754
-0.00715791
-0.00751779
-0.00438742
0.000136864
0.00347021
0.00441983
0.00208339
-0.00309205
-0.00656101
-0.00349629
-0.00655675
-0.0128742
-0.00721448
0.0028712
0.00861352
0.00747099
0.000542621
-0.00954909
-0.0179165
-0.0202092
-0.0176639
-0.0155864
-0.0158361
-0.0143081
-0.00578892
0.010711
0.0298254
0.0437183
0.0495046
0.0499798
0.0482669
0.0448306
0.0377635
0.0253574
0.00883344
-0.00812454
-0.0215525
-0.028983
-0.0302906
-0.0271306
-0.0217047
-0.0159635
-0.0110953
-0.00750563
-0.00517632
-0.00376598
-0.00297319
-0.00250997
-0.00219324
-0.00193721
-0.00167036
-0.00141145
-0.00113314
-0.000876146
-0.000626093
-0.000414322
-0.000231581
-9.53939e-05
-3.83972e-07
4.62385e-05
4.62356e-05
-3.95909e-07
-9.54166e-05
-0.000231622
-0.000414388
-0.000626193
-0.000876292
-0.00113334
-0.00141172
-0.00167069
-0.00193761
-0.00219369
-0.00251046
-0.00297369
-0.00376643
-0.0051767
-0.00750588
-0.0110954
-0.0159635
-0.0217046
-0.0271306
-0.0302907
-0.0289834
-0.0215528
-0.00812456
0.0088339
0.0253583
0.0377646
0.0448315
0.0482677
0.0499809
0.0495064
0.0437204
0.0298262
0.0107093
-0.00579229
-0.0143109
-0.0158368
-0.0155852
-0.0176635
-0.0202117
-0.0179202
-0.0095506
0.000544794
0.00747563
0.00861851
0.00287343
-0.00721822
-0.0128821
-0.00656103
-0.00309048
-0.00721448
-0.00606559
-0.00025779
0.00483203
0.00425705
-0.00190978
-0.0108928
-0.0204018
-0.028214
-0.0323077
-0.032188
-0.0282825
-0.0195645
-0.00283222
0.0224308
0.0494429
0.0694932
0.0795907
0.0819248
0.079715
0.0736081
0.0609648
0.0399892
0.0128824
-0.0148955
-0.0370972
-0.0496728
-0.0521691
-0.046867
-0.0372445
-0.0265914
-0.017004
-0.00950629
-0.00421854
-0.000763552
0.00128464
0.00244245
0.0029825
0.00318926
0.00317127
0.00303792
0.00284136
0.00261008
0.00238521
0.00216518
0.00198406
0.00183282
0.00173376
0.0016804
0.00168041
0.0017338
0.00183289
0.00198416
0.00216532
0.0023854
0.00261032
0.00284167
0.00303829
0.00317171
0.00318976
0.00298305
0.00244303
0.00128522
-0.000762977
-0.00421803
-0.00950589
-0.0170038
-0.0265916
-0.0372451
-0.0468682
-0.0521708
-0.0496749
-0.0370991
-0.0148966
0.0128827
0.0399909
0.0609674
0.0736108
0.0797173
0.081927
0.0795931
0.0694956
0.049444
0.0224294
-0.00283546
-0.0195677
-0.0282851
-0.0321906
-0.0323106
-0.0282164
-0.0204027
-0.0108917
-0.00190686
0.00426113
0.00483531
-0.000257626
-0.00606867
-0.00721823
-0.00309206
0.00208179
0.0028712
-0.00025779
-0.0019364
-0.00207639
-0.00484135
-0.0101553
-0.0153883
-0.0214123
-0.0305682
-0.0405579
-0.0449112
-0.0393587
-0.0231787
0.00349671
0.0369499
0.0689823
0.0929036
0.10602
0.109178
0.105683
0.0964106
0.0790148
0.0522771
0.0183473
-0.0168621
-0.045888
-0.0635527
-0.0685943
-0.0631736
-0.0515008
-0.0377507
-0.0248896
-0.0146238
-0.00722594
-0.00246474
0.000307757
0.0017277
0.00223763
0.00229108
0.00201877
0.00167407
0.00124825
0.000871471
0.000508229
0.000218006
-2.51816e-05
-0.000199638
-0.000318311
-0.000375813
-0.000375824
-0.000318335
-0.000199677
-2.5223e-05
0.000217968
0.000508212
0.000871489
0.00124832
0.00167422
0.00201899
0.00229141
0.00223806
0.00172824
0.00030837
-0.00246408
-0.0072253
-0.0146233
-0.0248893
-0.0377509
-0.0515016
-0.0631752
-0.0685966
-0.0635553
-0.0458902
-0.0168631
0.018348
0.0522794
0.0790181
0.096414
0.105686
0.109181
0.106023
0.0929066
0.0689846
0.03695
0.00349359
-0.0231839
-0.0393646
-0.0449167
-0.0405613
-0.0305682
-0.0214103
-0.0153867
-0.0101544
-0.00484009
-0.00207542
-0.00193669
-0.000257623
0.00287343
0.0020834
0.00441726
0.00861352
0.00483203
-0.00207639
-0.00803472
-0.0136836
-0.0195928
-0.0239076
-0.0270975
-0.0334676
-0.0433077
-0.0490654
-0.0424638
-0.0203989
0.013716
0.0514099
0.0856514
0.112483
0.127991
0.13156
0.125869
0.112077
0.0902715
0.0604553
0.0240179
-0.0139211
-0.0465283
-0.0683931
-0.0772165
-0.0744631
-0.064155
-0.0505209
-0.0371345
-0.0259911
-0.0176089
-0.0119315
-0.00812003
-0.00570369
-0.00401208
-0.00277012
-0.0017632
-0.00085373
-8.33359e-05
0.000655086
0.0012487
0.00179574
0.00219713
0.00252845
0.00272907
0.00283932
0.00283933
0.0027291
0.00252849
0.00219716
0.00179575
0.00124866
0.000654988
-8.35356e-05
-0.00085404
-0.00176366
-0.00277072
-0.00401284
-0.00570458
-0.00812097
-0.0119325
-0.0176098
-0.0259919
-0.0371351
-0.0505215
-0.0641556
-0.0744639
-0.0772177
-0.0683944
-0.0465292
-0.0139212
0.024019
0.0604575
0.0902742
0.11208
0.125872
0.131563
0.127995
0.112486
0.0856541
0.0514109
0.0137135
-0.0204055
-0.0424719
-0.0490717
-0.0433098
-0.0334661
-0.0270958
-0.0239078
-0.0195941
-0.0136843
-0.0080347
-0.00207541
0.00483531
0.00861851
0.00441984
0.00346824
0.00747099
0.00425705
-0.00484135
-0.0136836
-0.0195366
-0.024822
-0.0303078
-0.0350816
-0.0404089
-0.0460714
-0.0468727
-0.035517
-0.00878136
0.0275238
0.064787
0.0996612
0.128726
0.146571
0.151187
0.142644
0.122972
0.0958132
0.0625288
0.0245487
-0.0142653
-0.0487143
-0.0733493
-0.0848858
-0.0839063
-0.0736814
-0.0585648
-0.0428956
-0.0290785
-0.0184885
-0.0111072
-0.00627038
-0.00344864
-0.00168056
-0.000787928
-0.00015405
0.000156924
0.000432918
0.000594633
0.000738253
0.000843343
0.000917592
0.000979028
0.00100994
0.00103011
0.00103012
0.00100995
0.000979049
0.000917608
0.000843367
0.000738264
0.000594639
0.000432901
0.000156879
-0.000154123
-0.000788054
-0.0016807
-0.00344883
-0.00627053
-0.0111074
-0.0184886
-0.0290785
-0.0428957
-0.058565
-0.0736819
-0.0839073
-0.0848872
-0.0733511
-0.0487159
-0.0142663
0.0245486
0.0625299
0.0958153
0.122976
0.142648
0.151192
0.146576
0.12873
0.0996638
0.064788
0.0275225
-0.00878664
-0.035525
-0.0468798
-0.0460749
-0.0404093
-0.0350812
-0.0303082
-0.0248228
-0.0195374
-0.0136843
-0.00484007
0.00426113
0.00747562
0.00347022
0.000136332
0.000542621
-0.00190978
-0.0101553
-0.0195928
-0.024822
-0.0278807
-0.0334805
-0.0415348
-0.047062
-0.0460415
-0.0377126
-0.0199447
0.00839871
0.0422486
0.0771618
0.111405
0.140362
0.15952
0.165037
0.154053
0.130219
0.0989643
0.0629779
0.0245058
-0.0144425
-0.0502159
-0.0773616
-0.0918602
-0.092951
-0.0827212
-0.0658363
-0.0470606
-0.02974
-0.0162874
-0.00672289
-0.00101853
0.00195509
0.00301413
0.0028234
0.00215166
0.00104175
6.51232e-05
-0.00101852
-0.0018172
-0.00259706
-0.00311553
-0.00356205
-0.00381048
-0.00395385
-0.00395388
-0.00381059
-0.00356221
-0.00311574
-0.00259729
-0.00181741
-0.00101871
6.50467e-05
0.00104179
0.00215192
0.00282386
0.00301489
0.00195614
-0.0010172
-0.00672132
-0.0162857
-0.0297384
-0.0470595
-0.0658359
-0.0827218
-0.0929528
-0.091863
-0.077365
-0.0502191
-0.0144448
0.0245046
0.0629784
0.0989666
0.130223
0.154059
0.165043
0.159525
0.140366
0.111408
0.0771629
0.0422483
0.00839582
-0.0199509
-0.03772
-0.0460481
-0.0470664
-0.0415358
-0.0334792
-0.0278797
-0.0248228
-0.019594
-0.0101544
-0.00190687
0.000544791
0.000136868
-0.00438604
-0.00954909
-0.0108928
-0.0153883
-0.0239076
-0.0303078
-0.0334805
-0.0392299
-0.0472216
-0.0476524
-0.0360963
-0.0176519
0.0042665
0.0290279
0.0561763
0.0866066
0.117685
0.144682
0.164044
0.169159
0.156956
0.132177
0.100242
0.0658801
0.0310631
-0.0048787
-0.040177
-0.0705316
-0.0913687
-0.0996207
-0.0954154
-0.0824543
-0.0647398
-0.0466899
-0.0309901
-0.0185243
-0.00987088
-0.00374551
-7.26898e-05
0.00246216
0.00392137
0.0049427
0.00561497
0.006047
0.0064196
0.00660242
0.006813
0.00688189
0.00697721
0.00699386
0.00699388
0.0069773
0.00688202
0.0068132
0.00660263
0.00641986
0.00604725
0.00561524
0.00494294
0.00392157
0.00246231
-7.2636e-05
-0.00374548
-0.009871
-0.0185245
-0.0309904
-0.0466904
-0.0647406
-0.0824556
-0.0954171
-0.099623
-0.0913711
-0.0705337
-0.0401786
-0.00487945
0.0310632
0.065881
0.100244
0.132181
0.156961
0.169165
0.164049
0.144685
0.117687
0.0866073
0.056176
0.0290271
0.00426415
-0.0176564
-0.0361031
-0.0476601
-0.047226
-0.0392295
-0.0334792
-0.0303082
-0.0239078
-0.0153867
-0.0108917
-0.00955059
-0.00438742
-0.00751556
-0.0179165
-0.0204018
-0.0214123
-0.0270975
-0.0350816
-0.0415348
-0.0472216
-0.048991
-0.0389689
-0.0170997
0.00889728
0.0323509
0.0511508
0.0702307
0.0943947
0.120731
0.14534
0.162872
0.165545
0.152229
0.126702
0.0950981
0.0642971
0.0351281
0.0052979
-0.025948
-0.0566136
-0.0819436
-0.0968605
-0.0996659
-0.0919374
-0.076966
-0.0598012
-0.0430159
-0.0291636
-0.0185075
-0.0107088
-0.00552697
-0.00161754
0.000762654
0.00284385
0.00406806
0.00527927
0.00598895
0.00669199
0.00709952
0.00745986
0.00764654
0.00775617
0.00775619
0.00764667
0.00746004
0.00709978
0.00669228
0.00598928
0.00527959
0.00406833
0.00284406
0.00076268
-0.00161764
-0.00552735
-0.0107094
-0.0185084
-0.0291647
-0.0430172
-0.0598028
-0.0769677
-0.0919393
-0.0996677
-0.0968621
-0.0819447
-0.0566139
-0.0259477
0.00529848
0.0351286
0.0642972
0.0950985
0.126704
0.152233
0.16555
0.162877
0.145344
0.120733
0.0943949
0.07023
0.0511513
0.0323523
0.00889699
-0.0171037
-0.0389769
-0.0489994
-0.047226
-0.0415358
-0.0350812
-0.0270958
-0.0214103
-0.0204027
-0.0179202
-0.00751781
-0.00715703
-0.0202092
-0.028214
-0.0305682
-0.0334676
-0.0404089
-0.047062
-0.0476524
-0.0389689
-0.0210353
0.00387555
0.0321739
0.0564426
0.0724011
0.0863799
0.103767
0.12356
0.143395
0.156778
0.157621
0.144433
0.118301
0.0865115
0.0566632
0.0304765
0.00628577
-0.0189897
-0.0456492
-0.0698337
-0.0861621
-0.0918181
-0.0863397
-0.0731239
-0.0566804
-0.0402497
-0.0272736
-0.0175003
-0.0117788
-0.00847674
-0.00718326
-0.00697508
-0.0071279
-0.00771288
-0.00798041
-0.00849287
-0.00859184
-0.00887736
-0.00887163
-0.00898508
-0.00897078
-0.00897085
-0.00898529
-0.00887196
-0.00887783
-0.0085924
-0.00849356
-0.00798113
-0.00771368
-0.00712865
-0.0069758
-0.00718383
-0.0084771
-0.0117789
-0.0175001
-0.0272731
-0.0402488
-0.0566795
-0.073123
-0.0863391
-0.0918179
-0.0861622
-0.0698341
-0.0456496
-0.0189902
0.00628473
0.0304748
0.0566613
0.08651
0.118302
0.144436
0.157626
0.156784
0.1434
0.123563
0.103769
0.0863801
0.0724025
0.0564453
0.0321751
0.00387338
-0.0210409
-0.0389769
-0.0476601
-0.0470663
-0.0404093
-0.0334662
-0.0305682
-0.0282164
-0.0202117
-0.00715793
-0.00475869
-0.0176639
-0.0323077
-0.0405579
-0.0433077
-0.0460714
-0.0460415
-0.0360963
-0.0170997
0.00387555
0.0262694
0.0525071
0.0760712
0.0911468
0.101161
0.10998
0.120497
0.133281
0.14346
0.146396
0.137461
0.115105
0.0854167
0.0554932
0.0298121
0.00780889
-0.0146232
-0.0395005
-0.0643577
-0.0840243
-0.0939806
-0.0918774
-0.080524
-0.0631846
-0.0447917
-0.0285728
-0.0156786
-0.00731552
-0.00166941
0.000819406
0.00229303
0.00233308
0.00225533
0.00174496
0.00132124
0.000889853
0.000524001
0.000279455
8.32605e-05
6.71553e-06
6.71772e-06
8.32015e-05
0.000279404
0.000523896
0.000889766
0.00132112
0.00174487
0.00225526
0.00233305
0.00229312
0.000819558
-0.00166902
-0.00731503
-0.0156778
-0.028572
-0.0447907
-0.0631837
-0.0805235
-0.0918772
-0.0939811
-0.084025
-0.0643587
-0.0395017
-0.0146246
0.00780696
0.0298096
0.055491
0.0854158
0.115106
0.137465
0.146401
0.143464
0.133285
0.1205
0.109981
0.101162
0.0911493
0.076074
0.0525082
0.0262682
0.00387338
-0.0171037
-0.0361031
-0.0460481
-0.0460749
-0.0433099
-0.0405613
-0.0323106
-0.0176635
-0.00475755
-0.00379465
-0.0155864
-0.032188
-0.0449112
-0.0490654
-0.0468727
-0.0377126
-0.0176519
0.00889728
0.0321739
0.0525071
0.0742465
0.0934588
0.105886
0.111095
0.110824
0.111356
0.115984
0.122687
0.128325
0.126448
0.112858
0.0897437
0.0630372
0.0387903
0.0176089
-0.00412536
-0.0297739
-0.0580638
-0.0840868
-0.101267
-0.105655
-0.0980318
-0.0809572
-0.060437
-0.039592
-0.0220344
-0.00840508
0.00139209
0.00757318
0.0118186
0.0138377
0.0153769
0.0156952
0.0161261
0.0159217
0.0159551
0.0157097
0.0156614
0.0155628
0.0155629
0.0156616
0.01571
0.0159557
0.0159223
0.0161269
0.0156961
0.015378
0.0138389
0.0118198
0.00757435
0.00139322
-0.00840416
-0.0220338
-0.0395918
-0.0604375
-0.0809583
-0.0980338
-0.105658
-0.10127
-0.0840895
-0.0580657
-0.029775
-0.00412594
0.0176084
0.0387897
0.0630369
0.0897443
0.11286
0.126451
0.128328
0.12269
0.115986
0.111357
0.110826
0.111097
0.105889
0.0934619
0.0742487
0.0525082
0.0321751
0.008897
-0.0176564
-0.03772
-0.0468798
-0.0490717
-0.0449167
-0.0321906
-0.0155852
-0.00379324
-0.00505222
-0.0158361
-0.0282825
-0.0393587
-0.0424638
-0.035517
-0.0199447
0.0042665
0.0323509
0.0564426
0.0760712
0.0934588
0.108258
0.119161
0.121034
0.112936
0.10291
0.0963752
0.0958934
0.10156
0.10622
0.102572
0.0884744
0.0677498
0.0470866
0.0294448
0.0120481
-0.00966888
-0.0366288
-0.0655439
-0.0890065
-0.101913
-0.102156
-0.0916022
-0.0752724
-0.0566552
-0.040312
-0.0266304
-0.0170258
-0.0101502
-0.00572414
-0.00282433
-0.000754364
0.000514656
0.00169981
0.00235568
0.00310001
0.00344946
0.00382341
0.00393629
0.00393628
0.0038234
0.00344941
0.00309996
0.00235556
0.00169967
0.00051442
-0.000754635
-0.00282471
-0.00572458
-0.0101507
-0.0170264
-0.026631
-0.0403128
-0.056656
-0.0752734
-0.0916035
-0.102157
-0.101914
-0.0890079
-0.0655448
-0.0366288
-0.00966824
0.012049
0.0294455
0.0470869
0.0677503
0.0884752
0.102573
0.10622
0.101559
0.0958926
0.0963751
0.102911
0.112939
0.121039
0.119165
0.108261
0.0934619
0.0760741
0.0564453
0.0323523
0.00426415
-0.0199509
-0.0355251
-0.0424719
-0.0393646
-0.0282851
-0.0158368
-0.00505235
-0.00575259
-0.0143081
-0.0195645
-0.0231787
-0.0203989
-0.00878136
0.00839871
0.0290279
0.0511508
0.0724011
0.0911468
0.105886
0.119161
0.130161
0.129152
0.114917
0.0961034
0.0793
0.0719957
0.0763316
0.0847573
0.0887089
0.08209
0.0660228
0.0481013
0.0336569
0.0213259
0.00625662
-0.0155222
-0.0428971
-0.0690177
-0.0879133
-0.0947372
-0.0903226
-0.0779719
-0.0619119
-0.0466655
-0.0334867
-0.0242813
-0.0175913
-0.0137875
-0.0111529
-0.00979053
-0.00875008
-0.00811656
-0.00758699
-0.00717447
-0.00687399
-0.00664694
-0.00654515
-0.00654521
-0.00664706
-0.00687423
-0.00717479
-0.00758744
-0.00811712
-0.00875078
-0.00979136
-0.0111539
-0.0137886
-0.0175924
-0.0242824
-0.0334878
-0.0466666
-0.0619128
-0.0779726
-0.0903231
-0.0947375
-0.0879133
-0.069017
-0.0428958
-0.0155202
0.00625855
0.0213272
0.0336572
0.0481008
0.0660224
0.08209
0.0887087
0.0847563
0.0763292
0.0719924
0.079298
0.0961042
0.114921
0.129159
0.130168
0.119165
0.105889
0.0911493
0.0724024
0.0511513
0.0290271
0.00839579
-0.00878666
-0.0204055
-0.0231839
-0.0195677
-0.0143109
-0.00575412
-0.00314703
-0.00578892
-0.00283222
0.00349671
0.013716
0.0275238
0.0422486
0.0561763
0.0702307
0.0863799
0.101161
0.111095
0.121034
0.129152
0.125749
0.111403
0.0908662
0.0697703
0.0585921
0.0601397
0.0697208
0.0792749
0.0783415
0.0652185
0.0469296
0.0306271
0.0184205
0.00663266
-0.0107193
-0.0342768
-0.0591782
-0.0790913
-0.0874699
-0.0843193
-0.0714009
-0.0538913
-0.036225
-0.0209614
-0.0101782
-0.0027995
0.000796226
0.00269142
0.002712
0.00240041
0.00144697
0.000689118
-0.000164716
-0.00073135
-0.00118498
-0.0013846
-0.00138462
-0.001185
-0.000731407
-0.000164755
0.000689086
0.00144699
0.00240051
0.00271219
0.00269176
0.000796693
-0.00279881
-0.0101774
-0.0209604
-0.036224
-0.0538903
-0.0714001
-0.0843188
-0.0874697
-0.0790913
-0.059178
-0.0342764
-0.0107188
0.00663303
0.0184201
0.0306261
0.0469284
0.0652176
0.0783415
0.0792746
0.0697193
0.0601371
0.0585889
0.0697684
0.0908675
0.111407
0.125755
0.129159
0.121039
0.111097
0.101162
0.0863801
0.07023
0.056176
0.0422483
0.0275225
0.0137135
0.00349358
-0.00283547
-0.00579228
-0.00314869
0.00294805
0.010711
0.0224308
0.0369499
0.0514099
0.064787
0.0771618
0.0866066
0.0943947
0.103767
0.10998
0.110824
0.112936
0.114917
0.111403
0.101656
0.0833222
0.0621575
0.0493393
0.048416
0.0596546
0.0749416
0.0806865
0.0721169
0.0534327
0.0335289
0.0185322
0.00661184
-0.00880631
-0.0302203
-0.0556905
-0.0784359
-0.0910281
-0.0918129
-0.0805745
-0.0631303
-0.0431737
-0.0251002
-0.010839
-0.000409032
0.00587647
0.00998603
0.011645
0.0127515
0.0127201
0.0128271
0.012466
0.0123678
0.0121292
0.012078
0.012078
0.0121293
0.0123679
0.0124661
0.0128273
0.0127203
0.0127519
0.0116454
0.0099866
0.00587709
-0.00040823
-0.0108382
-0.0250992
-0.0431728
-0.0631296
-0.0805741
-0.091813
-0.0910284
-0.0784366
-0.0556911
-0.0302208
-0.00880691
0.00661098
0.0185308
0.0335273
0.053432
0.0721172
0.0806876
0.0749422
0.0596532
0.0484133
0.0493365
0.062156
0.083324
0.10166
0.111407
0.114921
0.112939
0.110826
0.109981
0.103769
0.0943949
0.0866073
0.0771629
0.064788
0.0514109
0.03695
0.0224294
0.0107093
0.0029473
0.0101563
0.0298254
0.0494429
0.0689823
0.0856514
0.0996612
0.111405
0.117685
0.120731
0.12356
0.120497
0.111356
0.10291
0.0961034
0.0908662
0.0833222
0.0678334
0.0509113
0.0396502
0.0380913
0.0509827
0.0708896
0.084473
0.083408
0.067679
0.0465544
0.0289219
0.0153557
7.29064e-05
-0.0212041
-0.049332
-0.0770974
-0.0971511
-0.104865
-0.0986225
-0.0837478
-0.0631853
-0.0434215
-0.0257085
-0.0122869
-0.00255848
0.00417524
0.00834315
0.0113938
0.0130029
0.0144459
0.015069
0.0157593
0.0159833
0.0161934
0.0161935
0.0159835
0.0157595
0.0150693
0.0144463
0.0130032
0.0113942
0.00834343
0.00417552
-0.00255834
-0.0122869
-0.0257086
-0.0434219
-0.0631859
-0.0837489
-0.0986239
-0.104867
-0.0971529
-0.0770989
-0.0493331
-0.0212045
7.2652e-05
0.0153554
0.0289213
0.046554
0.0676797
0.0834099
0.0844751
0.0708909
0.0509818
0.0380887
0.0396477
0.0509094
0.0678333
0.083324
0.0908675
0.0961042
0.102911
0.111357
0.1205
0.123563
0.120733
0.117687
0.111408
0.0996638
0.0856541
0.0689846
0.0494441
0.0298262
0.0101568
0.015219
0.0437183
0.0694932
0.0929036
0.112483
0.128726
0.140362
0.144682
0.14534
0.143395
0.133281
0.115984
0.0963752
0.0793
0.0697703
0.0621575
0.0509113
0.0395543
0.0292846
0.0265424
0.0387822
0.0609309
0.0822807
0.0903554
0.080467
0.060641
0.0416304
0.0272105
0.0137995
-0.00474997
-0.0318207
-0.0613241
-0.0870307
-0.101089
-0.101609
-0.0914777
-0.0739124
-0.0558811
-0.0384711
-0.0257255
-0.0157989
-0.00979606
-0.00565137
-0.00333529
-0.00186355
-0.000935157
-0.000416537
1.18555e-05
0.0001918
0.000326809
0.000326816
0.000191733
1.1803e-05
-0.00041667
-0.000935278
-0.00186375
-0.0033355
-0.00565164
-0.00979636
-0.0157992
-0.0257259
-0.0384715
-0.0558817
-0.073913
-0.0914787
-0.101611
-0.101091
-0.0870321
-0.0613249
-0.0318212
-0.00474978
0.0137998
0.0272105
0.0416306
0.0606417
0.0804689
0.0903584
0.0822831
0.0609318
0.038781
0.0265396
0.0292822
0.0395525
0.0509094
0.062156
0.0697684
0.079298
0.0963751
0.115986
0.133285
0.1434
0.145344
0.144685
0.140366
0.12873
0.112486
0.0929066
0.0694956
0.0437205
0.01522
0.0169204
0.0495046
0.0795907
0.10602
0.127991
0.146571
0.15952
0.164044
0.162872
0.156778
0.14346
0.122687
0.0958934
0.0719957
0.0585921
0.0493393
0.0396502
0.0292846
0.0178029
0.0134591
0.0227575
0.0449448
0.0724493
0.0893543
0.0872664
0.0711279
0.0521717
0.0377055
0.0269757
0.0123537
-0.0111036
-0.0401947
-0.0694592
-0.088726
-0.0958507
-0.0901338
-0.0760799
-0.0592579
-0.0423175
-0.0295558
-0.019306
-0.0136004
-0.00935064
-0.00771851
-0.00635456
-0.0061221
-0.00574379
-0.00578327
-0.0056858
-0.00571122
-0.00571124
-0.00568593
-0.00578343
-0.00574407
-0.00612242
-0.00635497
-0.00771899
-0.00935113
-0.013601
-0.0193065
-0.0295564
-0.042318
-0.0592585
-0.0760804
-0.0901344
-0.0958514
-0.0887265
-0.0694596
-0.0401943
-0.0111029
0.0123548
0.0269767
0.037706
0.0521723
0.0711292
0.0872688
0.0893574
0.0724513
0.0449444
0.0227552
0.0134555
0.0177995
0.0292822
0.0396476
0.0493365
0.0585889
0.0719924
0.0958926
0.12269
0.143464
0.156784
0.162877
0.164049
0.159525
0.146576
0.127995
0.106023
0.0795931
0.0495064
0.0169212
0.0166383
0.0499798
0.0819248
0.109178
0.13156
0.151187
0.165037
0.169159
0.165545
0.157621
0.146396
0.128325
0.10156
0.0763316
0.0601397
0.048416
0.0380913
0.0265424
0.0134591
0.00524521
0.00776234
0.026204
0.0555887
0.0797124
0.0866601
0.0758585
0.0577876
0.0427936
0.0332492
0.0218601
0.00293516
-0.0242156
-0.0541596
-0.0765854
-0.088042
-0.084939
-0.0728993
-0.0553085
-0.037616
-0.0228576
-0.0113619
-0.00445586
0.000423857
0.00223459
0.00370161
0.00362034
0.00390649
0.0035236
0.00353632
0.00337401
0.00337402
0.00353631
0.00352359
0.00390649
0.00362031
0.00370163
0.00223456
0.000423922
-0.00445586
-0.0113618
-0.0228575
-0.0376159
-0.0553085
-0.0728995
-0.0849392
-0.0880425
-0.0765856
-0.0541597
-0.024215
0.00293624
0.0218613
0.0332503
0.0427943
0.0577885
0.0758602
0.0866625
0.0797146
0.0555893
0.0262019
0.00775866
0.00524131
0.0134555
0.0265396
0.0380887
0.0484132
0.0601371
0.0763292
0.10156
0.128328
0.146401
0.157626
0.16555
0.169165
0.165043
0.151192
0.131563
0.109181
0.081927
0.0499809
0.0166385
0.0158479
0.0482669
0.079715
0.105683
0.125869
0.142644
0.154053
0.156956
0.152229
0.144433
0.137461
0.126448
0.10622
0.0847573
0.0697208
0.0596546
0.0509827
0.0387822
0.0227575
0.00776234
0.00082912
0.0108319
0.0364022
0.0642044
0.0784105
0.073211
0.0569303
0.0415787
0.0328608
0.0251315
0.0117181
-0.011831
-0.040509
-0.0656509
-0.0809536
-0.0816685
-0.0723818
-0.0551268
-0.0374112
-0.0207641
-0.0083251
0.000403599
0.00592752
0.00877329
0.010515
0.0108876
0.0112844
0.0110701
0.0111296
0.0110088
0.0110088
0.0111297
0.0110701
0.0112844
0.0108877
0.0105151
0.00877337
0.0059277
0.000403798
-0.00832482
-0.0207637
-0.0374108
-0.0551264
-0.0723816
-0.0816683
-0.0809536
-0.0656506
-0.0405085
-0.0118301
0.0117193
0.0251324
0.0328613
0.0415788
0.0569306
0.0732121
0.078412
0.064205
0.0364007
0.0108282
0.000824533
0.00775863
0.0227551
0.038781
0.0509817
0.0596531
0.0697193
0.0847564
0.10622
0.126451
0.137465
0.144436
0.152233
0.156961
0.154059
0.142648
0.125872
0.105686
0.0797173
0.0482677
0.0158478
0.0147507
0.0448306
0.0736081
0.0964106
0.112077
0.122972
0.130219
0.132177
0.126702
0.118301
0.115105
0.112858
0.102572
0.0887089
0.0792749
0.0749416
0.0708896
0.0609309
0.0449448
0.026204
0.0108319
0.00957306
0.0265042
0.0522251
0.0694754
0.0683031
0.0527778
0.0358083
0.026019
0.0203905
0.011597
-0.00758611
-0.0339489
-0.0606377
-0.0787377
-0.0833726
-0.0762188
-0.0597965
-0.0413862
-0.0228898
-0.00884129
0.0020766
0.00865994
0.013013
0.0151746
0.0164005
0.0169087
0.0171194
0.017198
0.0172063
0.0172063
0.0171981
0.0171194
0.0169088
0.0164006
0.0151748
0.0130132
0.00866012
0.00207686
-0.00884104
-0.0228894
-0.0413859
-0.0597962
-0.0762187
-0.0833725
-0.0787376
-0.0606376
-0.0339484
-0.00758536
0.0115978
0.0203908
0.0260186
0.0358074
0.0527771
0.0683032
0.0694756
0.0522243
0.0265016
0.00956906
0.0108282
0.0262019
0.0449444
0.0609318
0.070891
0.0749422
0.0792747
0.0887088
0.102573
0.11286
0.115106
0.118302
0.126704
0.132181
0.130223
0.122976
0.11208
0.096414
0.0736108
0.0448315
0.0147506
0.0126269
0.0377635
0.0609648
0.0790148
0.0902715
0.0958132
0.0989643
0.100242
0.0950981
0.0865115
0.0854167
0.0897437
0.0884744
0.08209
0.0783415
0.0806865
0.084473
0.0822807
0.0724493
0.0555887
0.0364022
0.0265042
0.033979
0.0544395
0.0718352
0.0720471
0.0548871
0.0332279
0.0182374
0.0108559
0.00391221
-0.0116859
-0.0355521
-0.062512
-0.0827117
-0.0905749
-0.085276
-0.0697645
-0.0502201
-0.0300908
-0.0137383
-0.000805789
0.00746245
0.0131688
0.0161354
0.0180908
0.0188889
0.01945
0.0196087
0.0197222
0.0197222
0.0196088
0.0194501
0.0188891
0.018091
0.0161356
0.0131692
0.00746278
-0.000805385
-0.0137379
-0.0300904
-0.0502198
-0.0697643
-0.0852761
-0.0905752
-0.0827122
-0.0625125
-0.0355524
-0.0116862
0.00391177
0.0108548
0.0182357
0.0332262
0.054886
0.072047
0.0718352
0.0544385
0.0339767
0.0265016
0.0364007
0.0555893
0.0724514
0.0822832
0.0844752
0.0806876
0.0783415
0.0820901
0.0884752
0.0897443
0.0854158
0.0865101
0.0950985
0.100244
0.0989666
0.0958153
0.0902743
0.0790181
0.0609674
0.0377647
0.012627
0.00872716
0.0253574
0.0399892
0.0522771
0.0604553
0.0625288
0.0629779
0.0658801
0.0642971
0.0566632
0.0554932
0.0630372
0.0677498
0.0660228
0.0652185
0.0721169
0.083408
0.0903554
0.0893543
0.0797124
0.0642044
0.0522251
0.0544395
0.071757
0.0900032
0.0924561
0.0745852
0.0473996
0.0246168
0.0114553
0.00212362
-0.0132574
-0.0371464
-0.0662057
-0.0903821
-0.103124
-0.101644
-0.0883815
-0.0689829
-0.0477823
-0.0294247
-0.0144785
-0.00423347
0.00299754
0.00722354
0.010062
0.011532
0.0125365
0.0129844
0.0132338
0.0132338
0.0129844
0.0125365
0.0115321
0.0100621
0.00722361
0.00299762
-0.00423341
-0.0144784
-0.0294248
-0.0477824
-0.0689831
-0.088382
-0.101645
-0.103125
-0.0903833
-0.0662069
-0.0371474
-0.0132584
0.00212234
0.0114535
0.0246148
0.0473981
0.0745848
0.092457
0.0900044
0.0717572
0.0544386
0.0522244
0.0642051
0.0797146
0.0893575
0.0903584
0.08341
0.0721173
0.0652177
0.0660224
0.0677502
0.0630369
0.0554911
0.0566613
0.0642972
0.0658809
0.0629784
0.0625299
0.0604575
0.0522794
0.0399909
0.0253583
0.00872744
0.00334237
0.00883344
0.0128824
0.0183473
0.0240179
0.0245487
0.0245058
0.0310631
0.0351281
0.0304765
0.0298121
0.0387903
0.0470866
0.0481013
0.0469296
0.0534327
0.067679
0.080467
0.0872664
0.0866601
0.0784105
0.0694754
0.0718352
0.0900032
0.113188
0.123074
0.109732
0.0812778
0.0526738
0.0331534
0.0196571
0.00237607
-0.0235892
-0.0566888
-0.0871732
-0.107556
-0.11291
-0.104981
-0.0884782
-0.0685246
-0.0500356
-0.0344272
-0.0233236
-0.0152803
-0.0104378
-0.0070824
-0.00528853
-0.00401459
-0.00342815
-0.00309392
-0.00309394
-0.00342821
-0.00401469
-0.00528868
-0.00708261
-0.0104381
-0.0152806
-0.0233241
-0.0344278
-0.0500363
-0.0685255
-0.0884793
-0.104983
-0.112911
-0.107558
-0.0871748
-0.0566902
-0.0235903
0.00237524
0.0196562
0.0331524
0.052673
0.0812779
0.109734
0.123076
0.113191
0.0900044
0.0718353
0.0694757
0.0784121
0.0866625
0.0872688
0.080469
0.0676798
0.053432
0.0469284
0.0481008
0.0470869
0.0387897
0.0298096
0.0304748
0.0351286
0.0310632
0.0245047
0.0245486
0.0240189
0.018348
0.0128827
0.00883388
0.00334264
-0.00225671
-0.00812454
-0.0148955
-0.0168621
-0.0139211
-0.0142653
-0.0144425
-0.0048787
0.0052979
0.00628577
0.00780889
0.0176089
0.0294448
0.0336569
0.0306271
0.0335289
0.0465544
0.060641
0.0711279
0.0758585
0.073211
0.0683031
0.0720471
0.0924561
0.123074
0.144376
0.141768
0.118968
0.0902682
0.0685655
0.0538502
0.0369752
0.0112096
-0.0240175
-0.059785
-0.0876049
-0.100831
-0.0997817
-0.0882233
-0.0716402
-0.0550158
-0.0407349
-0.0304259
-0.0232301
-0.0190705
-0.0164495
-0.0152428
-0.0144749
-0.0142204
-0.0140633
-0.0140634
-0.0142205
-0.0144751
-0.0152431
-0.0164498
-0.019071
-0.0232306
-0.0304265
-0.0407356
-0.0550166
-0.0716411
-0.0882243
-0.0997829
-0.100833
-0.0876061
-0.059786
-0.0240181
0.0112096
0.0369754
0.0538505
0.0685658
0.0902689
0.11897
0.141771
0.14438
0.123076
0.0924571
0.0720472
0.0683033
0.0732121
0.0758602
0.0711292
0.0606416
0.046554
0.0335273
0.0306261
0.0336572
0.0294455
0.0176085
0.00780701
0.00628473
0.00529846
-0.00487944
-0.0144448
-0.0142663
-0.0139213
-0.0168631
-0.0148966
-0.00812459
-0.00225648
-0.00670947
-0.0215525
-0.0370972
-0.045888
-0.0465283
-0.0487143
-0.0502159
-0.040177
-0.025948
-0.0189897
-0.0146232
-0.00412536
0.0120481
0.0213259
0.0184205
0.0185322
0.0289219
0.0416304
0.0521717
0.0577876
0.0569303
0.0527778
0.0548871
0.0745852
0.109732
0.141768
0.152306
0.139595
0.116055
0.0971766
0.0858048
0.0740781
0.0536834
0.0212972
-0.0150759
-0.0469414
-0.0657343
-0.0702606
-0.0632732
-0.0498654
-0.0355
-0.0227499
-0.013815
-0.00784418
-0.00493668
-0.00346908
-0.00329595
-0.0033534
-0.00367373
-0.00381181
-0.00381186
-0.00367384
-0.00335361
-0.00329622
-0.00346942
-0.00493707
-0.0078446
-0.0138154
-0.0227503
-0.0355004
-0.0498658
-0.0632736
-0.0702609
-0.0657345
-0.0469414
-0.0150755
0.0212981
0.0536848
0.0740796
0.0858062
0.0971778
0.116057
0.139597
0.152309
0.141771
0.109734
0.0745849
0.0548861
0.0527772
0.0569306
0.0577884
0.0521723
0.0416306
0.0289213
0.0185308
0.0184201
0.0213272
0.012049
-0.0041259
-0.0146245
-0.0189902
-0.0259477
-0.0401786
-0.0502191
-0.048716
-0.0465293
-0.0458902
-0.0370991
-0.0215528
-0.00670928
-0.00917473
-0.028983
-0.0496728
-0.0635527
-0.0683931
-0.0733493
-0.0773616
-0.0705316
-0.0566136
-0.0456492
-0.0395005
-0.0297739
-0.00966888
0.00625662
0.00663266
0.00661184
0.0153557
0.0272105
0.0377055
0.0427936
0.0415787
0.0358083
0.0332279
0.0473996
0.0812778
0.118968
0.139595
0.136208
0.1181
0.102566
0.0951254
0.0901097
0.0777543
0.0522052
0.0199803
-0.0112863
-0.0309228
-0.0371524
-0.0308121
-0.0173427
-0.00202435
0.0119579
0.0219742
0.0288634
0.0321707
0.0339245
0.0340202
0.0339352
0.0334652
0.0332843
0.0332843
0.0334652
0.0339352
0.0340202
0.0339245
0.0321708
0.0288636
0.0219744
0.0119582
-0.00202407
-0.0173423
-0.0308117
-0.037152
-0.0309224
-0.0112857
0.0199813
0.0522066
0.077756
0.0901113
0.0951267
0.102567
0.118102
0.13621
0.139597
0.11897
0.0812779
0.0473981
0.0332262
0.0358074
0.0415787
0.0427942
0.0377059
0.0272105
0.0153554
0.00661103
0.00663305
0.00625853
-0.00966823
-0.029775
-0.0395016
-0.0456496