/*--------------------------------*- C++ -*----------------------------------*\
  =========                 |
  \\      /  F ield         | OpenFOAM: The Open Source CFD Toolbox
   \\    /   O peration     | Website:  https://openfoam.org
    \\  /    A nd           | Version:  10
     \\/     M anipulation  |
\*---------------------------------------------------------------------------*/
FoamFile
{
    format      ascii;
    class       volScalarField;
    location    "73";
    object      h;
}
// * * * * * * * * * * * * * * * * * * * * * * * * * * * * * * * * * * * * * //

dimensions      [0 1 0 0 0 0 0];

internalField   nonuniform List<scalar> 
10000
(
-0.000568325
-0.00160487
-0.00239592
-0.00291913
-0.00328782
-0.00364858
-0.00406392
-0.00451962
-0.00499094
-0.00545196
-0.00587662
-0.00631832
-0.00687693
-0.00758458
-0.00841147
-0.00929632
-0.0100595
-0.0104433
-0.010361
-0.0100398
-0.00987618
-0.0101751
-0.0109554
-0.0118929
-0.012477
-0.0123877
-0.0118734
-0.0115606
-0.0118169
-0.0124748
-0.0131378
-0.0135136
-0.0135316
-0.0133037
-0.0129572
-0.0124268
-0.0113792
-0.00948564
-0.00684355
-0.00397551
-0.00140543
0.000585946
0.00184172
0.00218976
0.00155104
0.000125622
-0.0016595
-0.00339122
-0.00476178
-0.00552512
-0.00552523
-0.00476209
-0.00339171
-0.00166012
0.000124975
0.00155049
0.0021894
0.00184161
0.000586049
-0.00140523
-0.00397533
-0.00684343
-0.00948553
-0.011379
-0.0124265
-0.0129569
-0.0133034
-0.0135314
-0.0135134
-0.0131374
-0.0124743
-0.0118164
-0.0115602
-0.0118732
-0.0123877
-0.0124769
-0.0118926
-0.0109549
-0.0101747
-0.00987606
-0.0100399
-0.0103612
-0.0104433
-0.0100594
-0.00929624
-0.00841155
-0.0075848
-0.00687718
-0.00631849
-0.00587671
-0.00545208
-0.00499115
-0.00451992
-0.00406422
-0.00364879
-0.00328797
-0.00291929
-0.00239614
-0.0016051
-0.000568426
-0.00160487
-0.00454213
-0.00679507
-0.00826452
-0.0092364
-0.0101346
-0.011188
-0.0124077
-0.0137304
-0.0150385
-0.0162065
-0.0173846
-0.0189169
-0.020965
-0.0234569
-0.0261496
-0.0284276
-0.0295078
-0.0292028
-0.0282793
-0.0279401
-0.0290188
-0.0314652
-0.0342777
-0.0360063
-0.0358137
-0.0344861
-0.0338268
-0.0348248
-0.0369233
-0.03896
-0.0401279
-0.0402663
-0.0397059
-0.0387863
-0.0372835
-0.034222
-0.0286771
-0.0209774
-0.0126687
-0.00526242
0.000463098
0.00408411
0.00510539
0.00328102
-0.000825802
-0.00598377
-0.0109943
-0.014963
-0.0171745
-0.0171748
-0.0149639
-0.0109958
-0.00598562
-0.000827737
0.00327936
0.00510431
0.00408375
0.000463366
-0.00526183
-0.0126681
-0.020977
-0.0286767
-0.0342215
-0.0372827
-0.0387855
-0.0397051
-0.0402657
-0.0401272
-0.038959
-0.036922
-0.0348235
-0.0338259
-0.0344857
-0.0358136
-0.036006
-0.0342769
-0.031464
-0.0290178
-0.0279398
-0.0282795
-0.0292032
-0.0295079
-0.0284275
-0.0261495
-0.0234571
-0.0209655
-0.0189176
-0.0173851
-0.0162068
-0.0150389
-0.013731
-0.0124084
-0.0111888
-0.0101353
-0.00923689
-0.00826502
-0.00679565
-0.00454266
-0.0016051
-0.00239592
-0.00679507
-0.0101696
-0.012285
-0.0134964
-0.0144719
-0.0156856
-0.0172821
-0.0191846
-0.0211078
-0.0227375
-0.0243005
-0.0264687
-0.0296622
-0.0338017
-0.0383394
-0.0420726
-0.0436844
-0.0430387
-0.0416115
-0.0414321
-0.0436923
-0.0480525
-0.052773
-0.0556404
-0.0555656
-0.0539578
-0.0536214
-0.0559181
-0.0597864
-0.0633516
-0.0654336
-0.0658895
-0.0652668
-0.0640414
-0.061789
-0.0569683
-0.0482047
-0.0361252
-0.0232142
-0.0118052
-0.00301603
0.00257389
0.0042
0.00143406
-0.00488668
-0.0128561
-0.020604
-0.0267397
-0.0301585
-0.030159
-0.0267412
-0.0206064
-0.0128591
-0.00488982
0.00143136
0.00419821
0.00257323
-0.00301568
-0.0118043
-0.0232132
-0.0361243
-0.0482039
-0.0569673
-0.0617878
-0.0640401
-0.0652655
-0.0658883
-0.0654323
-0.0633501
-0.0597846
-0.0559163
-0.0536201
-0.0539572
-0.0555653
-0.05564
-0.052772
-0.0480512
-0.0436912
-0.0414316
-0.0416116
-0.0430391
-0.0436848
-0.0420727
-0.0383395
-0.033802
-0.0296628
-0.0264695
-0.0243013
-0.0227383
-0.0211086
-0.0191854
-0.0172831
-0.0156866
-0.0144728
-0.0134973
-0.0122858
-0.0101704
-0.00679565
-0.00239615
-0.00291913
-0.00826452
-0.012285
-0.0145966
-0.0155804
-0.0161247
-0.0169841
-0.0184921
-0.0205717
-0.0227352
-0.0244482
-0.0260056
-0.0284435
-0.0325077
-0.0381233
-0.0443557
-0.049345
-0.0512848
-0.0502065
-0.048377
-0.0486253
-0.0523689
-0.0588327
-0.0655187
-0.0696102
-0.0699867
-0.0687219
-0.0694298
-0.073625
-0.0796643
-0.0850078
-0.0882033
-0.089207
-0.0887903
-0.0875303
-0.084812
-0.0786548
-0.0674065
-0.0520291
-0.0357853
-0.0215947
-0.0107152
-0.00374203
-0.00162763
-0.00498685
-0.0128251
-0.0227518
-0.032403
-0.0400371
-0.0442887
-0.0442894
-0.0400393
-0.0324064
-0.0227559
-0.0128293
-0.00499041
-0.00163001
-0.003743
-0.0107149
-0.0215935
-0.0357838
-0.0520276
-0.0674051
-0.0786533
-0.0848102
-0.0875285
-0.0887887
-0.0892053
-0.0882016
-0.085006
-0.0796624
-0.0736232
-0.0694284
-0.068721
-0.0699861
-0.0696096
-0.0655179
-0.0588318
-0.052368
-0.0486248
-0.048377
-0.050207
-0.0512855
-0.0493457
-0.0443562
-0.0381238
-0.0325083
-0.0284443
-0.0260066
-0.0244493
-0.0227363
-0.0205726
-0.018493
-0.0169851
-0.0161259
-0.0155816
-0.0145978
-0.0122858
-0.00826502
-0.0029193
-0.00328782
-0.0092364
-0.0134964
-0.0155804
-0.0159455
-0.0156991
-0.0158379
-0.0168447
-0.0186307
-0.0205444
-0.0219086
-0.023113
-0.0255113
-0.0301174
-0.0368272
-0.044325
-0.050183
-0.0522273
-0.0506815
-0.048503
-0.0492026
-0.0543784
-0.0628532
-0.0714585
-0.0768874
-0.0780672
-0.0776632
-0.0799121
-0.0863747
-0.0948593
-0.102214
-0.106735
-0.108482
-0.108454
-0.107344
-0.104426
-0.097449
-0.0846567
-0.0673394
-0.0493174
-0.0338218
-0.0220344
-0.0144046
-0.0119596
-0.0154899
-0.0239868
-0.034823
-0.045369
-0.053706
-0.0583496
-0.0583505
-0.0537088
-0.0453731
-0.0348279
-0.0239918
-0.0154941
-0.0119624
-0.0144059
-0.0220342
-0.0338205
-0.0493154
-0.0673373
-0.0846545
-0.0974467
-0.104424
-0.107342
-0.108452
-0.108481
-0.106733
-0.102212
-0.0948576
-0.0863732
-0.0799107
-0.0776621
-0.0780664
-0.0768869
-0.0714581
-0.0628529
-0.0543781
-0.0492024
-0.048503
-0.050682
-0.0522283
-0.0501842
-0.044326
-0.0368279
-0.030118
-0.025512
-0.023114
-0.0219098
-0.0205455
-0.0186316
-0.0168455
-0.0158388
-0.0157003
-0.0159468
-0.0155816
-0.0134973
-0.00923689
-0.00328798
-0.00364858
-0.0101346
-0.0144719
-0.0161247
-0.0156991
-0.014524
-0.0137716
-0.0139925
-0.0150642
-0.0162551
-0.0168851
-0.0174731
-0.0195796
-0.0243514
-0.0316091
-0.0397386
-0.0459368
-0.0478191
-0.0457416
-0.0431176
-0.043965
-0.0500984
-0.0601268
-0.070397
-0.0771866
-0.0794115
-0.0801394
-0.0840492
-0.0927596
-0.103682
-0.113125
-0.119078
-0.121642
-0.12203
-0.121124
-0.118217
-0.110981
-0.0976982
-0.0799272
-0.061786
-0.0465445
-0.035113
-0.0276335
-0.0250652
-0.0283372
-0.0365786
-0.0472087
-0.057592
-0.0658131
-0.070401
-0.0704021
-0.0658163
-0.0575967
-0.0472143
-0.036584
-0.0283418
-0.0250684
-0.0276351
-0.0351131
-0.0465432
-0.0617836
-0.0799244
-0.0976952
-0.110978
-0.118214
-0.121121
-0.122028
-0.12164
-0.119076
-0.113123
-0.103681
-0.0927587
-0.0840483
-0.0801386
-0.0794109
-0.0771863
-0.0703971
-0.0601273
-0.050099
-0.0439655
-0.043118
-0.0457423
-0.0478203
-0.0459382
-0.03974
-0.0316101
-0.0243521
-0.0195801
-0.0174738
-0.016886
-0.0162561
-0.0150651
-0.0139933
-0.0137725
-0.0145251
-0.0157003
-0.0161259
-0.0144728
-0.0101353
-0.0036488
-0.00406392
-0.011188
-0.0156856
-0.0169841
-0.0158379
-0.0137716
-0.0120934
-0.0113855
-0.011498
-0.0117007
-0.0114124
-0.0112603
-0.0128667
-0.0173977
-0.0246137
-0.0327308
-0.0387538
-0.0401875
-0.0374007
-0.0340106
-0.0344066
-0.0407297
-0.0516246
-0.0631459
-0.0711719
-0.074457
-0.0762325
-0.0814779
-0.0919822
-0.104992
-0.116349
-0.123628
-0.126853
-0.127461
-0.12664
-0.12389
-0.116983
-0.104316
-0.0875729
-0.0708795
-0.0573144
-0.0473974
-0.04085
-0.0384154
-0.041087
-0.0482497
-0.0576394
-0.0668714
-0.074211
-0.0783254
-0.0783266
-0.0742144
-0.0668764
-0.0576451
-0.0482553
-0.0410918
-0.0384189
-0.040852
-0.0473978
-0.0573132
-0.070877
-0.0875696
-0.104313
-0.116979
-0.123887
-0.126638
-0.127459
-0.126851
-0.123626
-0.116348
-0.104991
-0.091982
-0.0814778
-0.0762323
-0.0744568
-0.0711719
-0.0631464
-0.0516256
-0.040731
-0.0344078
-0.0340116
-0.0374016
-0.0401885
-0.0387551
-0.0327321
-0.0246149
-0.0173986
-0.0128673
-0.0112607
-0.0114129
-0.0117014
-0.0114987
-0.0113863
-0.0120942
-0.0137725
-0.0158388
-0.0169851
-0.0156866
-0.0111888
-0.00406423
-0.00451962
-0.0124077
-0.0172821
-0.0184921
-0.0168447
-0.0139925
-0.0113855
-0.00968764
-0.00877713
-0.00797433
-0.00680221
-0.00590085
-0.00682689
-0.0107444
-0.0174491
-0.0251076
-0.0306212
-0.0313857
-0.0276512
-0.0230626
-0.022337
-0.0280761
-0.0391563
-0.0514595
-0.0604447
-0.0645597
-0.0669903
-0.0729122
-0.0844232
-0.0988509
-0.111657
-0.119901
-0.12342
-0.123878
-0.1229
-0.120374
-0.114333
-0.103311
-0.0889167
-0.074988
-0.0642299
-0.0567371
-0.0517685
-0.0497275
-0.0515768
-0.0570294
-0.0643562
-0.07164
-0.0774756
-0.0807741
-0.0807753
-0.077479
-0.0716449
-0.0643618
-0.0570349
-0.0515816
-0.0497312
-0.0517709
-0.056738
-0.0642293
-0.0749859
-0.0889134
-0.103307
-0.11433
-0.12037
-0.122898
-0.123876
-0.123418
-0.1199
-0.111657
-0.0988508
-0.0844237
-0.0729128
-0.0669909
-0.0645602
-0.0604452
-0.0514602
-0.0391575
-0.0280777
-0.0223388
-0.0230642
-0.0276524
-0.0313866
-0.0306221
-0.0251085
-0.0174501
-0.0107452
-0.00682736
-0.00590097
-0.00680222
-0.00797449
-0.00877758
-0.00968834
-0.0113863
-0.0139933
-0.0168455
-0.018493
-0.0172831
-0.0124084
-0.00451994
-0.00499094
-0.0137304
-0.0191846
-0.0205717
-0.0186307
-0.0150642
-0.011498
-0.00877713
-0.00687919
-0.00517412
-0.00322322
-0.00158446
-0.00170787
-0.00481782
-0.0108357
-0.0179056
-0.0228065
-0.0227946
-0.017947
-0.0118822
-0.0096427
-0.0143324
-0.0251047
-0.0377176
-0.0472611
-0.0518598
-0.0545145
-0.0604496
-0.0721003
-0.0870601
-0.10056
-0.109169
-0.112509
-0.112454
-0.111092
-0.108797
-0.103993
-0.0953714
-0.0842971
-0.0740599
-0.066855
-0.0623683
-0.0594076
-0.0579521
-0.058846
-0.06217
-0.0668843
-0.0716909
-0.0756103
-0.0778653
-0.0778664
-0.0756133
-0.0716953
-0.0668895
-0.0621753
-0.0588508
-0.057956
-0.0594105
-0.0623699
-0.0668551
-0.0740584
-0.0842943
-0.0953677
-0.10399
-0.108794
-0.11109
-0.112452
-0.112508
-0.109169
-0.10056
-0.0870605
-0.0721012
-0.0604508
-0.0545157
-0.0518609
-0.0472621
-0.0377184
-0.0251056
-0.0143338
-0.00964447
-0.0118841
-0.0179484
-0.0227954
-0.0228068
-0.0179057
-0.0108361
-0.0048183
-0.00170824
-0.00158446
-0.00322291
-0.00517382
-0.00687922
-0.00877758
-0.0114987
-0.0150651
-0.0186316
-0.0205726
-0.0191854
-0.013731
-0.00499116
-0.00545196
-0.0150385
-0.0211078
-0.0227352
-0.0205444
-0.0162551
-0.0117007
-0.00797433
-0.00517412
-0.00267567
-2.21518e-05
0.00231217
0.00291984
0.000451625
-0.00511418
-0.0117925
-0.0161705
-0.0154021
-0.00948136
-0.00204945
0.00156979
-0.00209681
-0.0123549
-0.0248648
-0.0345363
-0.0393249
-0.0419721
-0.0475134
-0.0585732
-0.0730885
-0.0862794
-0.0944381
-0.0970675
-0.0962125
-0.0943203
-0.092216
-0.0887784
-0.0829012
-0.0755991
-0.0694289
-0.0659959
-0.0646398
-0.0637844
-0.0629546
-0.0628074
-0.0637885
-0.0656133
-0.0676703
-0.069451
-0.0705323
-0.0705331
-0.0694534
-0.0676739
-0.0656177
-0.0637933
-0.0628121
-0.0629588
-0.063788
-0.0646424
-0.0659971
-0.0694285
-0.0755973
-0.0828983
-0.0887751
-0.092213
-0.0943182
-0.0962113
-0.0970673
-0.0944384
-0.08628
-0.0730895
-0.0585745
-0.047515
-0.0419738
-0.0393263
-0.0345374
-0.0248654
-0.0123555
-0.00209762
0.00156853
-0.00205095
-0.00948259
-0.0154027
-0.0161704
-0.011792
-0.00511374
0.000451776
0.00291983
0.00231229
-2.17596e-05
-0.00267516
-0.00517382
-0.00797449
-0.0117014
-0.0162561
-0.0205455
-0.0227363
-0.0211086
-0.0150389
-0.00545209
-0.00587662
-0.0162065
-0.0227375
-0.0244482
-0.0219086
-0.0168851
-0.0114124
-0.00680221
-0.00322322
-2.21518e-05
0.0032533
0.00612039
0.00712617
0.00481351
-0.000796897
-0.00743463
-0.0114736
-0.0101055
-0.00342515
0.00484012
0.00921491
0.00611412
-0.00372363
-0.0159028
-0.0254154
-0.030272
-0.0329155
-0.037927
-0.0478782
-0.0610412
-0.0728622
-0.0796733
-0.0810515
-0.0791746
-0.0766619
-0.0746471
-0.0724604
-0.0692276
-0.0655537
-0.0631612
-0.063059
-0.0643663
-0.0652621
-0.0648556
-0.0635684
-0.0621534
-0.0610394
-0.0602784
-0.0598352
-0.0596776
-0.0596781
-0.0598368
-0.0602811
-0.061043
-0.0621577
-0.0635731
-0.0648602
-0.0652665
-0.0643699
-0.0630617
-0.0631624
-0.0655534
-0.0692261
-0.0724582
-0.0746449
-0.0766601
-0.0791737
-0.0810513
-0.0796738
-0.0728631
-0.0610424
-0.0478798
-0.0379286
-0.032917
-0.0302732
-0.0254162
-0.0159033
-0.00372386
0.00611386
0.00921446
0.00483949
-0.00342573
-0.0101058
-0.0114734
-0.00743388
-0.000795952
0.00481436
0.00712677
0.00612081
0.00325368
-2.17571e-05
-0.00322291
-0.00680221
-0.0114129
-0.016886
-0.0219098
-0.0244492
-0.0227383
-0.0162068
-0.00587673
-0.00631832
-0.0173846
-0.0243005
-0.0260056
-0.023113
-0.0174731
-0.0112603
-0.00590085
-0.00158446
0.00231217
0.00612039
0.00925176
0.0102089
0.00754493
0.00147681
-0.00538074
-0.00928569
-0.00765222
-0.000809016
0.00747032
0.0117681
0.00863315
-0.00103534
-0.0128799
-0.0222005
-0.027214
-0.0300093
-0.0345026
-0.0430126
-0.0541223
-0.0637114
-0.0684546
-0.0681838
-0.0651561
-0.0619433
-0.0598045
-0.0584789
-0.0573456
-0.0565821
-0.0570473
-0.059204
-0.0621168
-0.0639188
-0.063413
-0.0607771
-0.0569785
-0.0530265
-0.0495291
-0.0468841
-0.0454748
-0.045475
-0.0468849
-0.0495307
-0.0530292
-0.0569822
-0.0607817
-0.0634181
-0.063924
-0.0621218
-0.0592082
-0.0570503
-0.0565837
-0.0573458
-0.0584782
-0.0598033
-0.0619421
-0.0651552
-0.0681834
-0.0684547
-0.0637122
-0.0541235
-0.0430141
-0.034504
-0.0300102
-0.0272145
-0.0222008
-0.0128801
-0.00103549
0.00863322
0.0117684
0.00747073
-0.000808682
-0.00765202
-0.00928546
-0.00538021
0.00147778
0.0075462
0.0102102
0.00925263
0.00612081
0.0023123
-0.00158445
-0.00590096
-0.0112607
-0.0174738
-0.023114
-0.0260066
-0.0243013
-0.0173851
-0.0063185
-0.00687693
-0.0189169
-0.0264687
-0.0284435
-0.0255113
-0.0195796
-0.0128667
-0.00682689
-0.00170787
0.00291984
0.00712617
0.0102089
0.0107556
0.00749797
0.000914732
-0.00614754
-0.0100405
-0.0085494
-0.00222764
0.00528084
0.00885494
0.00531921
-0.00430802
-0.015873
-0.025138
-0.0305433
-0.0337118
-0.0377476
-0.0446125
-0.0532188
-0.0600563
-0.0623667
-0.0603307
-0.0561766
-0.0522021
-0.0496135
-0.048515
-0.0485683
-0.0495504
-0.0514927
-0.0543974
-0.0574428
-0.0589308
-0.057518
-0.053174
-0.0469865
-0.0403628
-0.0343035
-0.0295617
-0.0269356
-0.0269356
-0.0295618
-0.0343042
-0.0403645
-0.0469897
-0.0531784
-0.0575234
-0.0589368
-0.0574489
-0.0544032
-0.0514976
-0.0495539
-0.0485704
-0.048516
-0.0496135
-0.0522015
-0.0561755
-0.0603296
-0.062366
-0.0600565
-0.0532197
-0.0446137
-0.0377485
-0.033712
-0.030543
-0.0251377
-0.015873
-0.00430822
0.0053193
0.00885562
0.00528196
-0.00222654
-0.00854874
-0.0100403
-0.0061474
0.000915323
0.00749917
0.0107571
0.0102102
0.00712678
0.00291984
-0.00170823
-0.00682735
-0.0128672
-0.0195801
-0.025512
-0.0284443
-0.0264695
-0.0189176
-0.0068772
-0.00758458
-0.020965
-0.0296622
-0.0325077
-0.0301174
-0.0243514
-0.0173977
-0.0107444
-0.00481782
0.000451625
0.00481351
0.00754493
0.00749797
0.00372041
-0.00308755
-0.0100702
-0.0139033
-0.0128056
-0.00744237
-0.00112141
0.00151816
-0.0023825
-0.011818
-0.0230281
-0.0323315
-0.0383234
-0.0420216
-0.0456257
-0.0507174
-0.0565891
-0.0604793
-0.0603289
-0.0566659
-0.0515477
-0.0468002
-0.0434313
-0.0418589
-0.0420369
-0.0433908
-0.0452173
-0.0471783
-0.048728
-0.0485424
-0.0453059
-0.0388392
-0.0302596
-0.021172
-0.0127869
-0.00611594
-0.00234888
-0.00234861
-0.00611537
-0.0127866
-0.0211728
-0.030262
-0.0388432
-0.0453113
-0.0485488
-0.048735
-0.0471854
-0.0452237
-0.043396
-0.0420407
-0.0418615
-0.0434326
-0.0468001
-0.0515463
-0.056664
-0.0603272
-0.0604785
-0.0565893
-0.0507181
-0.0456261
-0.0420212
-0.0383225
-0.0323307
-0.0230279
-0.0118183
-0.00238264
0.00151869
-0.0011202
-0.00744096
-0.0128045
-0.013903
-0.0100702
-0.00308746
0.00372109
0.00749917
0.0075462
0.00481436
0.000451781
-0.00481829
-0.0107452
-0.0173985
-0.0243521
-0.030118
-0.0325082
-0.0296628
-0.0209655
-0.00758482
-0.00841147
-0.0234569
-0.0338017
-0.0381233
-0.0368272
-0.0316091
-0.0246137
-0.0174491
-0.0108357
-0.00511418
-0.000796897
0.00147681
0.000914732
-0.00308755
-0.00970191
-0.016258
-0.0198829
-0.0191887
-0.0148407
-0.00971157
-0.00788915
-0.0119136
-0.0208851
-0.0315512
-0.0408224
-0.0473847
-0.0515845
-0.0547162
-0.058006
-0.0611562
-0.0622166
-0.0598633
-0.0549015
-0.0490823
-0.0436332
-0.0392707
-0.0366608
-0.0360188
-0.0364637
-0.036686
-0.036154
-0.0347453
-0.0316867
-0.0258506
-0.0169701
-0.00610553
0.00513493
0.0155081
0.0238469
0.0286191
0.0286196
0.023848
0.0155091
0.00513499
-0.00610692
-0.0169732
-0.0258554
-0.0316929
-0.0347525
-0.0361617
-0.0366933
-0.0364701
-0.036024
-0.0366647
-0.0392731
-0.0436337
-0.0490809
-0.0548988
-0.0598605
-0.0622147
-0.0611554
-0.0580059
-0.054716
-0.0515838
-0.0473836
-0.0408215
-0.031551
-0.0208856
-0.0119141
-0.00788906
-0.00971073
-0.0148393
-0.0191875
-0.0198822
-0.0162579
-0.00970208
-0.00308746
0.000915323
0.00147778
-0.000795948
-0.00511374
-0.010836
-0.0174501
-0.0246148
-0.0316101
-0.0368279
-0.0381238
-0.033802
-0.0234571
-0.00841156
-0.00929632
-0.0261496
-0.0383394
-0.0443557
-0.044325
-0.0397386
-0.0327308
-0.0251076
-0.0179056
-0.0117925
-0.00743463
-0.00538074
-0.00614754
-0.0100702
-0.016258
-0.0222748
-0.0256607
-0.0253169
-0.0218723
-0.0178134
-0.0166999
-0.0207317
-0.0291006
-0.0390576
-0.0480935
-0.0549946
-0.0595108
-0.0621303
-0.0637531
-0.064459
-0.063092
-0.0590269
-0.0532367
-0.0470486
-0.0410314
-0.0355782
-0.0315542
-0.0294029
-0.0279949
-0.02556
-0.0215005
-0.0162029
-0.00955132
-0.00072867
0.0105603
0.0233751
0.0362618
0.048098
0.0576751
0.0632108
0.0632113
0.0576764
0.0480995
0.0362628
0.023375
0.0105587
-0.000732054
-0.00955643
-0.0162095
-0.0215079
-0.0255675
-0.0280019
-0.029409
-0.0315591
-0.0355815
-0.0410325
-0.0470473
-0.0532337
-0.0590236
-0.0630893
-0.0644574
-0.0637521
-0.0621295
-0.0595098
-0.0549934
-0.0480928
-0.0390576
-0.0291011
-0.0207324
-0.0167001
-0.0178129
-0.0218713
-0.0253156
-0.0256597
-0.0222743
-0.0162579
-0.0100702
-0.0061474
-0.00538021
-0.00743388
-0.011792
-0.0179057
-0.0251085
-0.0327321
-0.0397399
-0.044326
-0.0443562
-0.0383395
-0.0261495
-0.00929626
-0.0100595
-0.0284276
-0.0420726
-0.049345
-0.050183
-0.0459368
-0.0387538
-0.0306212
-0.0228065
-0.0161705
-0.0114736
-0.00928569
-0.0100405
-0.0139033
-0.0198829
-0.0256607
-0.0290488
-0.0291607
-0.0266555
-0.0237561
-0.0235212
-0.0277353
-0.0355894
-0.0447712
-0.0533447
-0.0602965
-0.0649572
-0.0671291
-0.0673579
-0.0660058
-0.0626674
-0.0573842
-0.0512012
-0.0449241
-0.0384353
-0.0318073
-0.0260925
-0.0219798
-0.0182047
-0.0126924
-0.00484682
0.00446616
0.0147141
0.0263444
0.0396225
0.0537476
0.0675149
0.0800395
0.0902022
0.096121
0.0961215
0.0902037
0.0800415
0.067517
0.0537491
0.0396229
0.0263431
0.0147109
0.00446111
-0.00485316
-0.0126994
-0.0182117
-0.0219863
-0.0260981
-0.0318114
-0.0384372
-0.0449235
-0.0511988
-0.0573811
-0.0626646
-0.0660036
-0.067356
-0.0671275
-0.0649558
-0.0602954
-0.0533443
-0.0447714
-0.0355899
-0.0277356
-0.0235212
-0.0237555
-0.0266545
-0.0291595
-0.0290476
-0.0256597
-0.0198822
-0.013903
-0.0100403
-0.00928546
-0.0114734
-0.0161704
-0.0228068
-0.0306221
-0.0387551
-0.0459381
-0.0501841
-0.0493457
-0.0420727
-0.0284275
-0.0100594
-0.0104433
-0.0295078
-0.0436844
-0.0512848
-0.0522273
-0.0478191
-0.0401875
-0.0313857
-0.0227946
-0.0154021
-0.0101055
-0.00765222
-0.0085494
-0.0128056
-0.0191887
-0.0253169
-0.0291607
-0.0300731
-0.0288818
-0.0276493
-0.0288808
-0.0337996
-0.0414747
-0.0499776
-0.0579884
-0.0648527
-0.0696746
-0.071631
-0.0707954
-0.0676674
-0.0625647
-0.0562318
-0.0497774
-0.0434499
-0.0364373
-0.0284857
-0.0208244
-0.0144497
-0.00814223
0.00029742
0.0114496
0.0241095
0.0372249
0.0508913
0.0653032
0.0797859
0.0934183
0.10563
0.11553
0.121332
0.121332
0.115532
0.105632
0.0934216
0.0797892
0.0653058
0.0508924
0.0372241
0.0241067
0.0114451
0.000291682
-0.00814865
-0.0144563
-0.0208305
-0.0284906
-0.0364402
-0.0434506
-0.0497762
-0.0562296
-0.0625622
-0.0676649
-0.0707928
-0.0716285
-0.0696725
-0.0648515
-0.0579881
-0.0499779
-0.0414751
-0.0337995
-0.0288801
-0.0276482
-0.0288807
-0.0300719
-0.0291595
-0.0253156
-0.0191875
-0.0128045
-0.00854874
-0.00765201
-0.0101058
-0.0154027
-0.0227954
-0.0313866
-0.0401885
-0.0478203
-0.0522283
-0.0512855
-0.0436848
-0.029508
-0.0104433
-0.010361
-0.0292028
-0.0430387
-0.0502065
-0.0506815
-0.0457416
-0.0374007
-0.0276512
-0.017947
-0.00948136
-0.00342515
-0.000809016
-0.00222764
-0.00744237
-0.0148407
-0.0218723
-0.0266555
-0.0288818
-0.029682
-0.0309845
-0.0346005
-0.0409958
-0.0490019
-0.0570616
-0.0645496
-0.0713354
-0.0764638
-0.0785009
-0.0768812
-0.072064
-0.0650602
-0.057402
-0.0503528
-0.0436646
-0.0358604
-0.0263333
-0.0164474
-0.00757859
0.00122235
0.0120782
0.0255694
0.0403625
0.0550971
0.0695972
0.0839719
0.0976475
0.109984
0.120771
0.129476
0.134611
0.134612
0.129478
0.120774
0.109989
0.0976524
0.0839766
0.0696009
0.0550989
0.0403622
0.0255671
0.0120742
0.00121685
-0.007585
-0.016454
-0.0263392
-0.0358646
-0.0436669
-0.0503533
-0.0574013
-0.0650587
-0.0720616
-0.0768781
-0.0784975
-0.0764609
-0.0713335
-0.064549
-0.0570617
-0.049002
-0.0409953
-0.0345992
-0.0309829
-0.0296805
-0.0288807
-0.0266545
-0.0218713
-0.0148393
-0.00744096
-0.00222654
-0.00080868
-0.00342573
-0.00948259
-0.0179484
-0.0276524
-0.0374016
-0.0457423
-0.050682
-0.050207
-0.0430391
-0.0292032
-0.0103612
-0.0100398
-0.0282793
-0.0416115
-0.048377
-0.048503
-0.0431176
-0.0340106
-0.0230626
-0.0118822
-0.00204945
0.00484012
0.00747032
0.00528084
-0.00112141
-0.00971157
-0.0178134
-0.0237561
-0.0276493
-0.0309845
-0.0355189
-0.0422198
-0.0506413
-0.0593114
-0.067054
-0.0739901
-0.080626
-0.0860849
-0.0883461
-0.0860696
-0.0795043
-0.070287
-0.0607855
-0.0525359
-0.04493
-0.0359133
-0.0245073
-0.0121483
-0.000654305
0.0104268
0.0229515
0.0375447
0.0529906
0.0678723
0.0818536
0.0949549
0.106671
0.116615
0.124948
0.131604
0.135569
0.13557
0.131606
0.124951
0.11662
0.106677
0.0949613
0.0818593
0.0678765
0.0529928
0.0375447
0.0229493
0.0104226
-0.00066022
-0.012155
-0.0245137
-0.0359186
-0.0449338
-0.0525382
-0.0607866
-0.0702868
-0.0795026
-0.0860665
-0.0883421
-0.0860812
-0.0806234
-0.0739889
-0.0670539
-0.0593114
-0.0506407
-0.0422184
-0.0355171
-0.0309829
-0.0276482
-0.0237555
-0.0178129
-0.00971073
-0.0011202
0.00528196
0.00747073
0.0048395
-0.00205094
-0.0118841
-0.0230642
-0.0340116
-0.043118
-0.048503
-0.048377
-0.0416116
-0.0282795
-0.01004
-0.00987618
-0.0279401
-0.0414321
-0.0486253
-0.0492026
-0.043965
-0.0344066
-0.022337
-0.0096427
0.00156979
0.00921491
0.0117681
0.00885494
0.00151816
-0.00788915
-0.0166999
-0.0235212
-0.0288808
-0.0346005
-0.0422198
-0.0518184
-0.0620312
-0.0711037
-0.0782394
-0.0842801
-0.0903938
-0.0958725
-0.0981651
-0.0951113
-0.0866439
-0.0749242
-0.0631097
-0.0530765
-0.0440203
-0.0334522
-0.0200337
-0.0052049
0.00874736
0.0216039
0.0348208
0.0491459
0.0637325
0.0773522
0.0896127
0.100433
0.109325
0.116098
0.121267
0.125286
0.127734
0.127735
0.125288
0.12127
0.116103
0.109331
0.10044
0.0896196
0.077358
0.0637368
0.0491481
0.0348206
0.0216012
0.00874245
-0.00521112
-0.0200402
-0.0334581
-0.0440252
-0.0530803
-0.0631123
-0.0749254
-0.0866431
-0.0951085
-0.098161
-0.0958682
-0.0903905
-0.0842784
-0.078239
-0.0711038
-0.062031
-0.0518175
-0.0422184
-0.0345992
-0.0288802
-0.0235212
-0.0167001
-0.00788907
0.00151869
0.00885562
0.0117684
0.00921446
0.00156854
-0.00964447
-0.0223388
-0.0344078
-0.0439655
-0.0492024
-0.0486248
-0.0414316
-0.0279398
-0.00987607
-0.0101751
-0.0290188
-0.0436923
-0.0523689
-0.0543784
-0.0500984
-0.0407297
-0.0280761
-0.0143324
-0.00209681
0.00611412
0.00863315
0.00531921
-0.0023825
-0.0119136
-0.0207317
-0.0277353
-0.0337996
-0.0409958
-0.0506413
-0.0620312
-0.0730255
-0.081658
-0.0874646
-0.0919079
-0.0967709
-0.101566
-0.103307
-0.0990803
-0.0884925
-0.074119
-0.0597729
-0.0476723
-0.0369801
-0.0249458
-0.00989795
0.00682017
0.0225137
0.0362312
0.0489748
0.0616991
0.0741206
0.0853781
0.0950908
0.103051
0.108732
0.112069
0.113873
0.115097
0.115932
0.115932
0.115099
0.113876
0.112074
0.108738
0.103058
0.095098
0.0853848
0.0741263
0.0617032
0.0489767
0.0362304
0.0225104
0.00681519
-0.00990367
-0.0249515
-0.0369855
-0.0476771
-0.0597768
-0.0741214
-0.0884928
-0.0990784
-0.103304
-0.101562
-0.0967677
-0.0919061
-0.087464
-0.0816582
-0.0730257
-0.062031
-0.0506407
-0.0409953
-0.0337995
-0.0277356
-0.0207324
-0.0119141
-0.00238265
0.0053193
0.00863322
0.00611386
-0.00209761
-0.0143338
-0.0280777
-0.040731
-0.050099
-0.0543781
-0.052368
-0.0436912
-0.0290179
-0.0101747
-0.0109554
-0.0314652
-0.0480525
-0.0588327
-0.0628532
-0.0601268
-0.0516246
-0.0391563
-0.0251047
-0.0123549
-0.00372363
-0.00103534
-0.00430802
-0.011818
-0.0208851
-0.0291006
-0.0355894
-0.0414747
-0.0490019
-0.0593114
-0.0711037
-0.081658
-0.0888347
-0.0923936
-0.0942844
-0.0968536
-0.0999085
-0.100195
-0.0942194
-0.0813271
-0.0643873
-0.0476744
-0.0336987
-0.0217374
-0.00895646
0.00662225
0.0239016
0.039959
0.0531987
0.0642026
0.0741844
0.0835005
0.0917202
0.098488
0.10345
0.10601
0.106172
0.104954
0.1037
0.103108
0.103109
0.103701
0.104957
0.106176
0.106015
0.103456
0.0984946
0.091727
0.0835071
0.0741901
0.0642064
0.0532001
0.0399578
0.0238985
0.00661798
-0.00896139
-0.0217427
-0.0337041
-0.0476793
-0.0643909
-0.0813287
-0.0942189
-0.100193
-0.0999058
-0.0968512
-0.0942829
-0.092393
-0.0888347
-0.0816582
-0.0711038
-0.0593114
-0.049002
-0.0414751
-0.0355899
-0.0291011
-0.0208856
-0.0118183
-0.00430822
-0.00103549
-0.00372385
-0.0123554
-0.0251056
-0.0391575
-0.0516256
-0.0601272
-0.0628529
-0.0588318
-0.0480512
-0.031464
-0.0109549
-0.0118929
-0.0342777
-0.052773
-0.0655187
-0.0714585
-0.070397
-0.0631459
-0.0514595
-0.0377176
-0.0248648
-0.0159028
-0.0128799
-0.015873
-0.0230281
-0.0315512
-0.0390576
-0.0447712
-0.0499776
-0.0570616
-0.067054
-0.0782394
-0.0874646
-0.0923936
-0.0928638
-0.0911884
-0.090273
-0.0903616
-0.0881823
-0.0799057
-0.0646974
-0.0455785
-0.0270486
-0.0118168
0.000607777
0.0129664
0.0275
0.0435137
0.0581186
0.0692936
0.0773151
0.0836721
0.0893143
0.0941895
0.0979409
0.100069
0.0999196
0.0975346
0.0940363
0.0909794
0.0893683
0.0893685
0.0909801
0.0940376
0.0975368
0.0999228
0.100073
0.0979464
0.0941958
0.0893212
0.0836788
0.0773206
0.069297
0.0581198
0.0435128
0.0274976
0.0129627
0.00060287
-0.0118226
-0.0270545
-0.0455834
-0.0647006
-0.0799071
-0.0881822
-0.0903607
-0.090272
-0.0911875
-0.0928631
-0.092393
-0.087464
-0.078239
-0.0670539
-0.0570617
-0.0499779
-0.0447714
-0.0390576
-0.031551
-0.0230279
-0.015873
-0.0128801
-0.0159033
-0.0248654
-0.0377184
-0.0514602
-0.0631464
-0.0703971
-0.0714581
-0.0655179
-0.052772
-0.0342769
-0.0118926
-0.012477
-0.0360063
-0.0556404
-0.0696102
-0.0768874
-0.0771866
-0.0711719
-0.0604447
-0.0472611
-0.0345363
-0.0254154
-0.0222005
-0.025138
-0.0323315
-0.0408224
-0.0480935
-0.0533447
-0.0579884
-0.0645496
-0.0739901
-0.0842801
-0.0919079
-0.0942844
-0.0911884
-0.0852051
-0.0798273
-0.0759066
-0.0704301
-0.0594844
-0.0421285
-0.0213746
-0.00169844
0.0141062
0.026209
0.0370831
0.0491426
0.0621964
0.0736565
0.0813676
0.0854716
0.0877166
0.0895034
0.0910247
0.0918783
0.0914557
0.0891054
0.084919
0.0800266
0.0759875
0.0738557
0.0738558
0.0759879
0.0800273
0.0849201
0.0891072
0.0914585
0.0918824
0.0910303
0.0895101
0.0877237
0.0854782
0.0813726
0.0736597
0.0621977
0.049142
0.0370807
0.0262046
0.0141002
-0.00170507
-0.0213807
-0.0421333
-0.0594876
-0.0704321
-0.0759077
-0.0798278
-0.085205
-0.0911875
-0.0942829
-0.0919061
-0.0842784
-0.0739889
-0.064549
-0.0579881
-0.0533443
-0.0480928
-0.0408215
-0.0323307
-0.0251377
-0.0222008
-0.0254162
-0.0345374
-0.0472621
-0.0604452
-0.0711719
-0.0771863
-0.0768869
-0.0696096
-0.05564
-0.036006
-0.0124769
-0.0123877
-0.0358137
-0.0555656
-0.0699867
-0.0780672
-0.0794115
-0.074457
-0.0645597
-0.0518598
-0.0393249
-0.030272
-0.027214
-0.0305433
-0.0383234
-0.0473847
-0.0549946
-0.0602965
-0.0648527
-0.0713354
-0.080626
-0.0903938
-0.0967709
-0.0968536
-0.090273
-0.0798273
-0.0696018
-0.0611677
-0.051996
-0.0383092
-0.0191098
0.00275559
0.0230523
0.0390004
0.0503819
0.0592485
0.0680672
0.0771786
0.08451
0.0880601
0.0880001
0.0862652
0.0844885
0.0829276
0.0811004
0.0783753
0.07422
0.0688299
0.063284
0.0589682
0.0567519
0.056752
0.0589684
0.0632843
0.0688303
0.0742207
0.0783769
0.0811032
0.0829322
0.0844945
0.086272
0.0880068
0.088066
0.0845145
0.0771815
0.0680682
0.0592471
0.050378
0.0389944
0.0230453
0.00274876
-0.0191157
-0.0383139
-0.0519997
-0.0611705
-0.0696037
-0.0798278
-0.090272
-0.0968512
-0.0967677
-0.0903905
-0.0806234
-0.0713336
-0.0648515
-0.0602954
-0.0549934
-0.0473836
-0.0383225
-0.030543
-0.0272145
-0.0302731
-0.0393263
-0.0518609
-0.0645601
-0.0744568
-0.0794109
-0.0780664
-0.0699861
-0.0555653
-0.0358136
-0.0123877
-0.0118734
-0.0344861
-0.0539578
-0.0687219
-0.0776632
-0.0801394
-0.0762325
-0.0669903
-0.0545145
-0.0419721
-0.0329155
-0.0300093
-0.0337118
-0.0420216
-0.0515845
-0.0595108
-0.0649572
-0.0696746
-0.0764638
-0.0860849
-0.0958725
-0.101566
-0.0999085
-0.0903616
-0.0759066
-0.0611677
-0.048442
-0.0358176
-0.0198092
0.000624346
0.0229518
0.0433536
0.0591436
0.0696919
0.0765317
0.0820666
0.0871359
0.0903129
0.0899615
0.0863651
0.0814932
0.0769351
0.0728232
0.0685942
0.0637292
0.0579664
0.0516875
0.0459048
0.0417244
0.0396822
0.0396824
0.0417247
0.045905
0.0516875
0.0579665
0.0637298
0.0685961
0.0728266
0.07694
0.081499
0.0863712
0.0899673
0.090318
0.0871398
0.0820686
0.0765313
0.0696888
0.0591382
0.043347
0.0229451
0.000618306
-0.0198145
-0.0358223
-0.048446
-0.0611705
-0.0759077
-0.0903607
-0.0999058
-0.101562
-0.0958682
-0.0860812
-0.0764609
-0.0696725
-0.0649558
-0.0595098
-0.0515838
-0.0420212
-0.033712
-0.0300102
-0.0329169
-0.0419738
-0.0545157
-0.0669909
-0.0762323
-0.0801386
-0.0776621
-0.068721
-0.0539572
-0.0344858
-0.0118733
-0.0115606
-0.0338268
-0.0536214
-0.0694298
-0.0799121
-0.0840492
-0.0814779
-0.0729122
-0.0604496
-0.0475134