/*--------------------------------*- C++ -*----------------------------------*\
  =========                 |
  \\      /  F ield         | OpenFOAM: The Open Source CFD Toolbox
   \\    /   O peration     | Website:  https://openfoam.org
    \\  /    A nd           | Version:  10
     \\/     M anipulation  |
\*---------------------------------------------------------------------------*/
FoamFile
{
    format      ascii;
    class       volScalarField;
    location    "73";
    object      h_0;
}
// * * * * * * * * * * * * * * * * * * * * * * * * * * * * * * * * * * * * * //

dimensions      [0 1 0 0 0 0 0];

internalField   nonuniform List<scalar> 
10000
(
-0.000580497
-0.00163985
-0.00244984
-0.002987
-0.00336471
-0.00373009
-0.00414706
-0.0046041
-0.00507888
-0.00554619
-0.00597811
-0.00642526
-0.00698526
-0.00769088
-0.00851682
-0.00940638
-0.0101794
-0.0105723
-0.0104931
-0.0101663
-0.00998993
-0.0102762
-0.0110519
-0.011993
-0.0125808
-0.0124888
-0.0119644
-0.0116379
-0.0118826
-0.0125358
-0.0132016
-0.0135816
-0.0135982
-0.0133645
-0.0130162
-0.0124918
-0.0114542
-0.00956994
-0.00693515
-0.00407351
-0.00150772
0.000484377
0.00174702
0.00210832
0.00148956
8.89494e-05
-0.00167119
-0.00338383
-0.00474417
-0.00550389
-0.00550399
-0.00474448
-0.00338433
-0.00167181
8.82949e-05
0.001489
0.00210797
0.00174691
0.00048448
-0.00150752
-0.00407332
-0.00693502
-0.00956982
-0.011454
-0.0124915
-0.0130159
-0.0133642
-0.013598
-0.0135814
-0.0132013
-0.0125354
-0.0118821
-0.0116376
-0.0119643
-0.0124888
-0.0125807
-0.0119927
-0.0110514
-0.0102758
-0.0099898
-0.0101664
-0.0104932
-0.0105723
-0.0101793
-0.0094063
-0.00851689
-0.0076911
-0.00698551
-0.00642544
-0.00597821
-0.0055463
-0.0050791
-0.0046044
-0.00414736
-0.00373031
-0.00336486
-0.00298716
-0.00245007
-0.00164008
-0.000580599
-0.00163985
-0.00464277
-0.00695032
-0.00845956
-0.00945618
-0.0103658
-0.0114221
-0.0126447
-0.0139771
-0.015303
-0.0164911
-0.0176842
-0.0192205
-0.0212633
-0.0237534
-0.0264602
-0.0287667
-0.0298732
-0.0295775
-0.028639
-0.0282638
-0.0293052
-0.0317368
-0.0345584
-0.0362981
-0.0360991
-0.034744
-0.0340455
-0.0350089
-0.0370926
-0.0391368
-0.0403173
-0.040452
-0.0398752
-0.0389505
-0.0374652
-0.0344335
-0.0289162
-0.0212378
-0.0129471
-0.00555203
0.000176975
0.00381885
0.00487895
0.00311258
-0.000921833
-0.00600628
-0.01096
-0.0148976
-0.0170978
-0.0170981
-0.0148985
-0.0109615
-0.00600814
-0.000923791
0.00311089
0.00487785
0.00381848
0.000177246
-0.00555143
-0.0129465
-0.0212374
-0.0289158
-0.0344329
-0.0374645
-0.0389496
-0.0398744
-0.0404513
-0.0403166
-0.0391358
-0.0370913
-0.0350076
-0.0340446
-0.0347436
-0.0360991
-0.0362978
-0.0345576
-0.0317357
-0.0293042
-0.0282635
-0.0286392
-0.0295779
-0.0298734
-0.0287665
-0.0264601
-0.0237536
-0.0212638
-0.0192211
-0.0176847
-0.0164915
-0.0153033
-0.0139777
-0.0126454
-0.0114229
-0.0103665
-0.00945666
-0.00846006
-0.0069509
-0.0046433
-0.00164008
-0.00244984
-0.00695032
-0.0104088
-0.0125838
-0.0138292
-0.0148165
-0.0160296
-0.0176273
-0.0195427
-0.0214912
-0.0231493
-0.0247332
-0.0269072
-0.0300943
-0.0342329
-0.0387932
-0.0425701
-0.0442236
-0.0435956
-0.0421496
-0.0419167
-0.0441171
-0.0484501
-0.0531821
-0.0560691
-0.0559903
-0.0543449
-0.0539482
-0.0561876
-0.0600289
-0.0636048
-0.0657086
-0.0661619
-0.0655152
-0.0642819
-0.062057
-0.0572838
-0.0485649
-0.0365196
-0.0236352
-0.01224
-0.00344081
0.00218531
0.00387389
0.00119932
-0.00500698
-0.0128587
-0.0205141
-0.0265975
-0.0299964
-0.029997
-0.0265991
-0.0205166
-0.0128618
-0.00501016
0.00119659
0.00387208
0.00218464
-0.00344046
-0.0122391
-0.0236342
-0.0365187
-0.0485641
-0.0572828
-0.0620557
-0.0642806
-0.065514
-0.0661607
-0.0657073
-0.0636033
-0.0600271
-0.0561858
-0.0539469
-0.0543442
-0.05599
-0.0560686
-0.0531811
-0.0484488
-0.044116
-0.0419162
-0.0421497
-0.043596
-0.0442239
-0.0425703
-0.0387933
-0.0342333
-0.030095
-0.026908
-0.024734
-0.0231501
-0.0214919
-0.0195436
-0.0176283
-0.0160306
-0.0148175
-0.0138301
-0.0125846
-0.0104096
-0.0069509
-0.00245007
-0.002987
-0.00845956
-0.0125838
-0.0149653
-0.0159831
-0.0165319
-0.0173812
-0.0188838
-0.0209741
-0.0231637
-0.0249068
-0.0264871
-0.0289322
-0.0329906
-0.038607
-0.0448681
-0.049913
-0.0519091
-0.0508616
-0.0490177
-0.0492023
-0.0528667
-0.0592891
-0.0659873
-0.0701101
-0.0704938
-0.0691909
-0.069823
-0.0739385
-0.0799365
-0.0852931
-0.0885221
-0.0895296
-0.0890866
-0.0878166
-0.0851326
-0.0790371
-0.0678483
-0.0525158
-0.0363033
-0.0221233
-0.011222
-0.00419491
-0.0019963
-0.00523679
-0.0129267
-0.0226989
-0.0322259
-0.0397874
-0.0440099
-0.0440106
-0.0397895
-0.0322292
-0.022703
-0.0129309
-0.00524039
-0.00199871
-0.00419589
-0.0112216
-0.022122
-0.0363018
-0.0525143
-0.0678468
-0.0790355
-0.0851309
-0.0878148
-0.0890849
-0.089528
-0.0885204
-0.0852912
-0.0799346
-0.0739367
-0.0698215
-0.0691899
-0.0704932
-0.0701095
-0.0659865
-0.0592882
-0.0528658
-0.0492018
-0.0490177
-0.050862
-0.0519098
-0.0499136
-0.0448686
-0.0386075
-0.0329912
-0.0289329
-0.0264881
-0.0249079
-0.0231647
-0.020975
-0.0188847
-0.0173822
-0.0165331
-0.0159843
-0.0149664
-0.0125846
-0.00846007
-0.00298717
-0.00336471
-0.00945618
-0.0138292
-0.0159831
-0.0163733
-0.0161171
-0.0162302
-0.0172184
-0.0190055
-0.0209388
-0.0223297
-0.0235559
-0.0259617
-0.0305623
-0.0372738
-0.0448049
-0.0507291
-0.0528464
-0.051349
-0.0491659
-0.0497973
-0.0548785
-0.0632998
-0.0719195
-0.0773955
-0.0786006
-0.0781658
-0.08033
-0.0866949
-0.0951259
-0.102497
-0.107065
-0.108827
-0.108775
-0.107655
-0.104776
-0.0978711
-0.0851495
-0.0678839
-0.049892
-0.0343968
-0.0225702
-0.0148669
-0.0123185
-0.0157096
-0.0240334
-0.0346872
-0.0450832
-0.0533294
-0.057935
-0.057936
-0.0533322
-0.0450874
-0.0346922
-0.0240384
-0.0157138
-0.0123213
-0.0148682
-0.02257
-0.0343954
-0.04989
-0.0678817
-0.0851473
-0.0978689
-0.104774
-0.107653
-0.108773
-0.108825
-0.107063
-0.102495
-0.0951241
-0.0866933
-0.0803287
-0.0781648
-0.0785999
-0.0773949
-0.0719191
-0.0632995
-0.0548783
-0.0497971
-0.0491659
-0.0513495
-0.0528474
-0.0507303
-0.0448058
-0.0372745
-0.0305629
-0.0259624
-0.0235569
-0.0223309
-0.02094
-0.0190065
-0.0172192
-0.0162311
-0.0161182
-0.0163747
-0.0159843
-0.0138301
-0.00945667
-0.00336487
-0.00373009
-0.0103658
-0.0148165
-0.0165319
-0.0161171
-0.0149128
-0.0141135
-0.0142958
-0.0153526
-0.0165525
-0.0172037
-0.0178109
-0.0199226
-0.0246859
-0.031944
-0.0401116
-0.0463892
-0.0483638
-0.0463529
-0.0437332
-0.0445089
-0.050538
-0.0605075
-0.0707993
-0.0776546
-0.0799248
-0.0806328
-0.0844557
-0.0930592
-0.103923
-0.113388
-0.119402
-0.121992
-0.122363
-0.12145
-0.118588
-0.111432
-0.0982271
-0.0805083
-0.0623884
-0.0471295
-0.0356369
-0.0280636
-0.0253761
-0.0284958
-0.0365493
-0.0469791
-0.0571941
-0.0653098
-0.0698521
-0.0698532
-0.0653131
-0.0571989
-0.0469847
-0.0365548
-0.0285004
-0.0253793
-0.0280653
-0.035637
-0.0471281
-0.062386
-0.0805054
-0.0982241
-0.111429
-0.118585
-0.121447
-0.122361
-0.12199
-0.1194
-0.113386
-0.103922
-0.0930582
-0.0844549
-0.0806319
-0.0799241
-0.0776542
-0.0707994
-0.060508
-0.0505385
-0.0445094
-0.0437336
-0.0463535
-0.0483649
-0.0463906
-0.0401129
-0.031945
-0.0246866
-0.0199231
-0.0178117
-0.0172047
-0.0165535
-0.0153535
-0.0142966
-0.0141144
-0.0149138
-0.0161182
-0.0165331
-0.0148175
-0.0103665
-0.00373032
-0.00414706
-0.0114221
-0.0160296
-0.0173812
-0.0162302
-0.0141135
-0.0123635
-0.0115924
-0.0116706
-0.011871
-0.0115985
-0.0114611
-0.0130657
-0.0175802
-0.0247929
-0.0329538
-0.039072
-0.0406179
-0.0379125
-0.0345302
-0.03485
-0.0410648
-0.0519041
-0.0634599
-0.0715706
-0.0749185
-0.076684
-0.0818454
-0.0922435
-0.105199
-0.116588
-0.123941
-0.127205
-0.127805
-0.126984
-0.124284
-0.117464
-0.104877
-0.0881801
-0.0714919
-0.0578857
-0.0478831
-0.0412221
-0.0386557
-0.0411681
-0.0481375
-0.0573201
-0.0663754
-0.0736016
-0.0776656
-0.0776668
-0.073605
-0.0663804
-0.0573259
-0.0481432
-0.0411729
-0.0386592
-0.0412241
-0.0478835
-0.0578846
-0.0714894
-0.0881768
-0.104874
-0.11746
-0.124281
-0.126981
-0.127803
-0.127203
-0.123939
-0.116587
-0.105198
-0.0922432
-0.0818452
-0.0766838
-0.0749182
-0.0715706
-0.0634604
-0.0519051
-0.0410661
-0.0348513
-0.0345312
-0.0379134
-0.0406189
-0.0390733
-0.0329551
-0.0247941
-0.0175811
-0.0130662
-0.0114615
-0.011599
-0.0118716
-0.0116714
-0.0115932
-0.0123643
-0.0141144
-0.0162311
-0.0173822
-0.0160306
-0.0114229
-0.00414737
-0.0046041
-0.0126447
-0.0176273
-0.0188838
-0.0172184
-0.0142958
-0.0115924
-0.00980653
-0.0088425
-0.0080256
-0.0068621
-0.00596728
-0.00688002
-0.0107697
-0.0174661
-0.0251735
-0.0307961
-0.0316886
-0.0280441
-0.0234619
-0.022655
-0.0282854
-0.0393175
-0.0516689
-0.060755
-0.0649458
-0.0673739
-0.0732174
-0.0846305
-0.0990162
-0.111869
-0.120199
-0.12377
-0.124233
-0.123265
-0.120795
-0.114843
-0.103898
-0.0895378
-0.0755934
-0.0647683
-0.0571659
-0.0520661
-0.0498841
-0.0515728
-0.0568356
-0.0639601
-0.0710706
-0.0767938
-0.0800419
-0.0800431
-0.0767971
-0.0710755
-0.0639658
-0.0568412
-0.0515776
-0.0498878
-0.0520685
-0.0571668
-0.0647676
-0.0755912
-0.0895344
-0.103894
-0.114839
-0.120791
-0.123262
-0.124231
-0.123769
-0.120198
-0.111868
-0.0990161
-0.0846309
-0.073218
-0.0673745
-0.0649462
-0.0607555
-0.0516696
-0.0393186
-0.028287
-0.0226568
-0.0234634
-0.0280453
-0.0316896
-0.0307969
-0.0251744
-0.017467
-0.0107705
-0.00688051
-0.00596741
-0.00686211
-0.00802576
-0.00884295
-0.00980723
-0.0115932
-0.0142966
-0.0172192
-0.0188847
-0.0176283
-0.0126455
-0.00460441
-0.00507888
-0.0139771
-0.0195427
-0.0209741
-0.0190055
-0.0153526
-0.0116706
-0.0088425
-0.0068749
-0.00514328
-0.00319013
-0.0015457
-0.0016427
-0.00471446
-0.0107195
-0.0178401
-0.0228557
-0.0229774
-0.0182199
-0.0121557
-0.00982954
-0.0144105
-0.0251386
-0.0378062
-0.0474588
-0.0521403
-0.054798
-0.0606623
-0.072228
-0.0871619
-0.100722
-0.109432
-0.112839
-0.112804
-0.111464
-0.10923
-0.104513
-0.0959599
-0.0849045
-0.0746292
-0.0673337
-0.0627188
-0.0596154
-0.0580149
-0.058753
-0.0618994
-0.0664279
-0.071077
-0.0748956
-0.0771063
-0.0771074
-0.0748987
-0.0710815
-0.0664331
-0.0619046
-0.0587577
-0.0580189
-0.0596182
-0.0627204
-0.0673338
-0.0746277
-0.0849016
-0.0959562
-0.104509
-0.109227
-0.111461
-0.112803
-0.112838
-0.109431
-0.100722
-0.0871624
-0.0722289
-0.0606634
-0.0547993
-0.0521415
-0.0474597
-0.0378069
-0.0251395
-0.0144118
-0.00983131
-0.0121575
-0.0182213
-0.0229782
-0.022856
-0.0178402
-0.0107198
-0.00471495
-0.00164307
-0.00154571
-0.00318984
-0.00514298
-0.00687492
-0.00884295
-0.0116714
-0.0153534
-0.0190065
-0.020975
-0.0195436
-0.0139777
-0.00507911
-0.00554619
-0.015303
-0.0214912
-0.0231637
-0.0209388
-0.0165525
-0.011871
-0.0080256
-0.00514328
-0.00260472
6.55536e-05
0.00241993
0.00306542
0.000641803
-0.00490795
-0.0116335
-0.0161208
-0.0154794
-0.00964051
-0.00220084
0.00150984
-0.00204617
-0.0122565
-0.0248158
-0.0345939
-0.0394664
-0.0421209
-0.0476008
-0.0585907
-0.0730963
-0.0863606
-0.0946303
-0.0973432
-0.0965279
-0.0946701
-0.0926298
-0.0892741
-0.0834538
-0.0761535
-0.0699252
-0.0663845
-0.0648907
-0.0638901
-0.0629193
-0.0626286
-0.0634538
-0.065121
-0.067049
-0.0687506
-0.0697993
-0.0698002
-0.068753
-0.0670526
-0.0651254
-0.0634586
-0.0626333
-0.0629236
-0.0638936
-0.0648932
-0.0663857
-0.0699249
-0.0761516
-0.0834509
-0.0892708
-0.0926268
-0.0946678
-0.0965267
-0.0973429
-0.0946306
-0.0863612
-0.0730972
-0.058592
-0.0476023
-0.0421225
-0.0394678
-0.034595
-0.0248165
-0.012257
-0.00204698
0.00150858
-0.00220234
-0.00964177
-0.01548
-0.0161207
-0.011633
-0.00490751
0.000641958
0.00306541
0.00242005
6.59347e-05
-0.00260423
-0.00514298
-0.00802575
-0.0118716
-0.0165535
-0.02094
-0.0231647
-0.0214919
-0.0153033
-0.00554631
-0.00597811
-0.0164911
-0.0231493
-0.0249068
-0.0223297
-0.0172037
-0.0115985
-0.0068621
-0.00319013
6.55536e-05
0.00337358
0.00627428
0.00732581
0.0050606
-0.000530642
-0.0072074
-0.0113427
-0.0100885
-0.003479
0.00480153
0.00927086
0.00628397
-0.00349574
-0.0157093
-0.0253174
-0.0302543
-0.0329081
-0.0378677
-0.047763
-0.0609294
-0.072833
-0.079765
-0.0812439
-0.0794275
-0.0769612
-0.0750092
-0.0728944
-0.0697045
-0.0660173
-0.0635534
-0.0633366
-0.064508
-0.0652671
-0.0647331
-0.0633239
-0.0617847
-0.0605528
-0.0597023
-0.0592109
-0.0590374
-0.0590379
-0.0592125
-0.059705
-0.0605563
-0.061789
-0.0633285
-0.0647377
-0.0652714
-0.0645117
-0.0633392
-0.0635546
-0.066017
-0.069703
-0.0728922
-0.075007
-0.0769594
-0.0794265
-0.0812437
-0.0797654
-0.0728339
-0.0609306
-0.0477645
-0.0378693
-0.0329095
-0.0302555
-0.0253182
-0.0157098
-0.00349599
0.0062837
0.00927041
0.00480091
-0.00347958
-0.0100887
-0.0113425
-0.00720667
-0.000529701
0.00506145
0.00732642
0.0062747
0.00337395
6.59371e-05
-0.00318983
-0.0068621
-0.0115989
-0.0172046
-0.0223309
-0.0249079
-0.0231501
-0.0164915
-0.00597822
-0.00642526
-0.0176842
-0.0247332
-0.0264871
-0.0235559
-0.0178109
-0.0114611
-0.00596728
-0.0015457
0.00241993
0.00627428
0.00944893
0.010456
0.00784054
0.00179558
-0.00509105
-0.00907943
-0.00754902
-0.000769475
0.00752887
0.0119222
0.00890541
-0.000691406
-0.0125511
-0.0219527
-0.0270415
-0.0298498
-0.0343004
-0.0427665
-0.0538894
-0.0635671
-0.0684399
-0.0682877
-0.0653404
-0.0621822
-0.0600982
-0.0588284
-0.0577223
-0.0569342
-0.0573239
-0.0593714
-0.0621634
-0.0638487
-0.063239
-0.060512
-0.0566306
-0.0526098
-0.0490707
-0.0464145
-0.0450092
-0.0450094
-0.0464152
-0.0490723
-0.0526124
-0.0566344
-0.0605166
-0.0632441
-0.0638539
-0.0621683
-0.0593756
-0.057327
-0.0569358
-0.0577225
-0.0588277
-0.0600971
-0.0621809
-0.0653395
-0.0682873
-0.0684401
-0.0635679
-0.0538906
-0.042768
-0.0343018
-0.0298507
-0.0270419
-0.021953
-0.0125514
-0.000691578
0.00890546
0.0119225
0.00752929
-0.000769134
-0.00754882
-0.0090792
-0.00509054
0.00179654
0.00784181
0.0104572
0.00944981
0.0062747
0.00242005
-0.00154571
-0.0059674
-0.0114615
-0.0178117
-0.0235569
-0.026488
-0.024734
-0.0176848
-0.00642545
-0.00698526
-0.0192205
-0.0269072
-0.0289322
-0.0259617
-0.0199226
-0.0130657
-0.00688002
-0.0016427
0.00306542
0.00732581
0.010456
0.0110532
0.00784414
0.00128686
-0.00579813
-0.00976798
-0.0083762
-0.00211667
0.00541073
0.00907938
0.00566444
-0.00387926
-0.015442
-0.0247744
-0.0302503
-0.0334361
-0.0374401
-0.0442745
-0.0529025
-0.0598312
-0.062276
-0.0603722
-0.0563137
-0.0523959
-0.0498474
-0.0487827
-0.0488451
-0.0497945
-0.0516653
-0.0544777
-0.0574291
-0.0588315
-0.0573479
-0.0529521
-0.0467306
-0.0400924
-0.0340424
-0.0293274
-0.0267254
-0.0267254
-0.0293274
-0.034043
-0.0400941
-0.0467337
-0.0529565
-0.0573533
-0.0588374
-0.0574353
-0.0544835
-0.0516702
-0.049798
-0.0488472
-0.0487837
-0.0498475
-0.0523952
-0.0563126
-0.060371
-0.0622753
-0.0598314
-0.0529034
-0.0442757
-0.037441
-0.0334363
-0.03025
-0.0247741
-0.015442
-0.00387947
0.00566452
0.00908006
0.00541185
-0.00211556
-0.00837553
-0.00976778
-0.005798
0.00128744
0.00784534
0.0110547
0.0104572
0.00732642
0.00306542
-0.00164307
-0.00688049
-0.0130662
-0.0199231
-0.0259624
-0.0289329
-0.026908
-0.0192211
-0.00698553
-0.00769088
-0.0212633
-0.0300943
-0.0329906
-0.0305623
-0.0246859
-0.0175802
-0.0107697
-0.00471446
0.000641803
0.0050606
0.00784054
0.00784414
0.00411383
-0.00266998
-0.00967704
-0.0135892
-0.0125931
-0.00729394
-0.000956777
0.0017721
-0.00201188
-0.0113607
-0.0225583
-0.0319183
-0.0379759
-0.0416964
-0.0452835
-0.0503626
-0.0562663
-0.0602464
-0.0602266
-0.0566987
-0.0516811
-0.0469846
-0.0436355
-0.0420703
-0.0422365
-0.0435497
-0.0453124
-0.0472042
-0.0486934
-0.0484596
-0.0451915
-0.0387177
-0.0301559
-0.0211079
-0.0127792
-0.00616822
-0.00244203
-0.00244175
-0.00616761
-0.0127789
-0.0211087
-0.0301583
-0.0387217
-0.0451969
-0.0484659
-0.0487004
-0.0472112
-0.0453188
-0.0435549
-0.0422403
-0.0420728
-0.0436368
-0.0469846
-0.0516798
-0.0566967
-0.0602248
-0.0602455
-0.0562665
-0.0503633
-0.0452839
-0.041696
-0.0379751
-0.0319176
-0.0225581
-0.011361
-0.00201203
0.00177262
-0.000955568
-0.00729251
-0.012592
-0.0135888
-0.00967712
-0.0026699
0.00411451
0.00784534
0.00784181
0.00506145
0.000641963
-0.00471494
-0.0107705
-0.0175811
-0.0246866
-0.0305629
-0.0329911
-0.030095
-0.0212638
-0.00769112
-0.00851682
-0.0237534
-0.0342329
-0.038607
-0.0372738
-0.031944
-0.0247929
-0.0174661
-0.0107195
-0.00490795
-0.000530642
0.00179558
0.00128686
-0.00266998
-0.0092673
-0.0158571
-0.0195682
-0.0189784
-0.0146939
-0.00955086
-0.00764852
-0.0115694
-0.0204621
-0.0311136
-0.0404324
-0.0470532
-0.0512791
-0.0544119
-0.0577129
-0.0609091
-0.062056
-0.0598204
-0.0549829
-0.0492561
-0.0438434
-0.0394755
-0.0368434
-0.0361663
-0.0365606
-0.0367264
-0.0361486
-0.0347131
-0.0316435
-0.0258154
-0.016972
-0.0061743
0.00497908
0.0152587
0.0235146
0.0282359
0.0282363
0.0235157
0.0152597
0.0049792
-0.00617564
-0.0169751
-0.0258201
-0.0316496
-0.0347203
-0.0361562
-0.0367337
-0.0365671
-0.0361715
-0.0368473
-0.0394779
-0.0438439
-0.0492547
-0.0549802
-0.0598176
-0.0620541
-0.0609083
-0.0577128
-0.0544117
-0.0512784
-0.0470521
-0.0404315
-0.0311135
-0.0204625
-0.0115699
-0.00764844
-0.00955002
-0.0146926
-0.0189772
-0.0195675
-0.015857
-0.00926748
-0.0026699
0.00128744
0.00179654
-0.000529697
-0.0049075
-0.0107198
-0.017467
-0.0247941
-0.031945
-0.0372745
-0.0386075
-0.0342333
-0.0237536
-0.0085169
-0.00940638
-0.0264602
-0.0387932
-0.0448681
-0.0448049
-0.0401116
-0.0329538
-0.0251735
-0.0178401
-0.0116335
-0.0072074
-0.00509105
-0.00579813
-0.00967704
-0.0158571
-0.0219179
-0.0253942
-0.0251499
-0.0217598
-0.0176834
-0.0164985
-0.0204429
-0.0287457
-0.0386891
-0.0477625
-0.054712
-0.0592573
-0.0618988
-0.0635616
-0.0643321
-0.063048
-0.0590809
-0.0533923
-0.0472763
-0.0412738
-0.0357884
-0.0317128
-0.0295023
-0.0280326
-0.0255462
-0.0214615
-0.0161668
-0.00953647
-0.000755738
0.0104586
0.0231672
0.0359324
0.0476529
0.0571381
0.0626212
0.0626217
0.0571394
0.0476545
0.0359335
0.0231671
0.010457
-0.000759097
-0.00954156
-0.0161733
-0.0214689
-0.0255537
-0.0280396
-0.0295084
-0.0317177
-0.0357917
-0.0412749
-0.047275
-0.0533894
-0.0590776
-0.0630454
-0.0643304
-0.0635606
-0.0618979
-0.0592563
-0.0547109
-0.0477618
-0.0386891
-0.0287463
-0.0204436
-0.0164986
-0.0176829
-0.0217588
-0.0251486
-0.0253932
-0.0219174
-0.015857
-0.00967712
-0.005798
-0.00509054
-0.00720666
-0.011633
-0.0178402
-0.0251743
-0.0329551
-0.0401129
-0.0448058
-0.0448686
-0.0387933
-0.0264601
-0.00940631
-0.0101794
-0.0287667
-0.0425701
-0.049913
-0.0507291
-0.0463892
-0.039072
-0.0307961
-0.0228557
-0.0161208
-0.0113427
-0.00907943
-0.00976798
-0.0135892
-0.0195682
-0.0253942
-0.0288667
-0.0290612
-0.0265905
-0.0236625
-0.0233597
-0.0274989
-0.035297
-0.0444634
-0.0530616
-0.0600502
-0.064744
-0.0669611
-0.0672614
-0.0659937
-0.0627333
-0.0575226
-0.0514094
-0.045176
-0.0386781
-0.0319943
-0.0262031
-0.02201
-0.0181619
-0.0126012
-0.00474663
0.00454043
0.014743
0.0263071
0.0394852
0.0534796
0.0671086
0.0795136
0.0895909
0.0954645
0.095465
0.0895925
0.0795157
0.0671108
0.0534812
0.0394856
0.0263058
0.0147397
0.0045354
-0.00475297
-0.0126082
-0.0181689
-0.0220166
-0.0262088
-0.0319984
-0.03868
-0.0451755
-0.051407
-0.0575195
-0.0627305
-0.0659914
-0.0672595
-0.0669594
-0.0647425
-0.0600492
-0.0530612
-0.0444636
-0.0352975
-0.0274993
-0.0233596
-0.0236619
-0.0265896
-0.02906
-0.0288655
-0.0253932
-0.0195675
-0.0135888
-0.00976778
-0.0090792
-0.0113425
-0.0161207
-0.022856
-0.0307969
-0.0390733
-0.0463906
-0.0507303
-0.0499136
-0.0425703
-0.0287665
-0.0101794
-0.0105723
-0.0298732
-0.0442236
-0.0519091
-0.0528464
-0.0483638
-0.0406179
-0.0316886
-0.0229774
-0.0154794
-0.0100885
-0.00754902
-0.0083762
-0.0125931
-0.0189784
-0.0251499
-0.0290612
-0.0300298
-0.0288474
-0.0275716
-0.0287353
-0.0335877
-0.0412128
-0.0496956
-0.0577167
-0.0646069
-0.0694679
-0.071494
-0.07076
-0.0677333
-0.0627001
-0.0564094
-0.0499877
-0.0436733
-0.0366312
-0.0286091
-0.0208567
-0.0143876
-0.0079992
0.000486633
0.011636
0.0242542
0.0373092
0.0508965
0.0651971
0.0795414
0.0930368
0.105142
0.114977
0.120749
0.120749
0.114979
0.105145
0.0930401
0.0795447
0.0651997
0.0508976
0.0373084
0.0242513
0.0116315
0.000480896
-0.00800563
-0.0143942
-0.0208629
-0.0286141
-0.0366343
-0.043674
-0.0499866
-0.0564073
-0.0626977
-0.0677308
-0.0707574
-0.0714915
-0.0694658
-0.0646057
-0.0577164
-0.0496959
-0.0412132
-0.0335876
-0.0287346
-0.0275706
-0.0288462
-0.0300286
-0.02906
-0.0251486
-0.0189772
-0.012592
-0.00837553
-0.00754882
-0.0100887
-0.0154799
-0.0229782
-0.0316895
-0.0406189
-0.0483649
-0.0528474
-0.0519098
-0.0442239
-0.0298734
-0.0105723
-0.0104931
-0.0295775
-0.0435956
-0.0508616
-0.051349
-0.0463529
-0.0379125
-0.0280441
-0.0182199
-0.00964051
-0.003479
-0.000769475
-0.00211667
-0.00729394
-0.0146939
-0.0217598
-0.0265905
-0.0288474
-0.0296343
-0.0308829
-0.034433
-0.0407716
-0.0487356
-0.0567735
-0.064261
-0.0710655
-0.0762417
-0.0783718
-0.0768794
-0.0721758
-0.0652305
-0.0575832
-0.050529
-0.043825
-0.0359776
-0.0263761
-0.0163962
-0.0074295
0.00145355
0.0123511
0.0258297
0.0405704
0.0552373
0.0696555
0.0839204
0.0974649
0.109681
0.120386
0.129055
0.13418
0.13418
0.129057
0.120389
0.109685
0.0974698
0.0839251
0.0696592
0.0552391
0.0405702
0.0258275
0.012347
0.00144805
-0.00743593
-0.0164029
-0.026382
-0.0359819
-0.0438273
-0.0505296
-0.0575826
-0.065229
-0.0721735
-0.0768764
-0.0783684
-0.0762387
-0.0710637
-0.0642604
-0.0567736
-0.0487358
-0.0407711
-0.0344317
-0.0308813
-0.0296328
-0.0288462
-0.0265895
-0.0217587
-0.0146926
-0.00729251
-0.00211556
-0.000769132
-0.00347957
-0.00964176
-0.0182213
-0.0280453
-0.0379133
-0.0463535
-0.0513495
-0.050862
-0.043596
-0.0295779
-0.0104932
-0.0101663
-0.028639
-0.0421496
-0.0490177
-0.0491659
-0.0437332
-0.0345302
-0.0234619
-0.0121557
-0.00220084
0.00480153
0.00752887
0.00541073
-0.000956777
-0.00955086
-0.0176834
-0.0236625
-0.0275716
-0.0308829
-0.0353617
-0.0420054
-0.0503868
-0.0590324
-0.0667625
-0.0736975
-0.0803521
-0.0858692
-0.0882431
-0.0861125
-0.0796673
-0.0704954
-0.0609739
-0.0526827
-0.0450342
-0.0359651
-0.0244878
-0.0120407
-0.00045405
0.0107029
0.0232601
0.0378301
0.053215
0.0680257
0.0819289
0.0949317
0.106535
0.116383
0.124666
0.131316
0.135289
0.13529
0.131317
0.124669
0.116388
0.106541
0.0949381
0.0819346
0.0680299
0.0532172
0.0378302
0.023258
0.0106986
-0.000459966
-0.0120474
-0.0244942
-0.0359705
-0.045038
-0.0526851
-0.0609749
-0.0704952
-0.0796657
-0.0861094
-0.0882391
-0.0858654
-0.0803494
-0.0736963
-0.0667624
-0.0590325
-0.0503863
-0.0420041
-0.0353599
-0.0308813
-0.0275706
-0.0236619
-0.0176829
-0.00955002
-0.000955569
0.00541185
0.00752929
0.00480091
-0.00220233
-0.0121575
-0.0234634
-0.0345312
-0.0437336
-0.0491659
-0.0490177
-0.0421497
-0.0286392
-0.0101664
-0.00998993
-0.0282638
-0.0419167
-0.0492023
-0.0497973
-0.0445089
-0.03485
-0.022655
-0.00982954
0.00150984
0.00927086
0.0119222
0.00907938
0.0017721
-0.00764852
-0.0164985
-0.0233597
-0.0287353
-0.034433
-0.0420054
-0.0515654
-0.0617668
-0.0708478
-0.0779971
-0.0840511
-0.0901923
-0.0957403
-0.0981582
-0.0952583
-0.0869079
-0.0752146
-0.0633462
-0.0532333
-0.0441069
-0.033477
-0.0199912
-0.00508251
0.00895371
0.0218759
0.0351137
0.049404
0.0639215
0.0774684
0.0896586
0.100398
0.109201
0.115905
0.121052
0.125089
0.127561
0.127562
0.125091
0.121055
0.11591
0.109208
0.100405
0.0896655
0.0774743
0.0639257
0.0494063
0.0351135
0.0218732
0.00894881
-0.00508872
-0.0199977
-0.0334829
-0.0441118
-0.0532371
-0.0633489
-0.0752158
-0.0869071
-0.0952555
-0.0981541
-0.095736
-0.090189
-0.0840493
-0.0779967
-0.0708478
-0.0617666
-0.0515645
-0.0420041
-0.0344317
-0.0287346
-0.0233596
-0.0164986
-0.00764844
0.00177262
0.00908005
0.0119225
0.00927042
0.00150859
-0.0098313
-0.0226567
-0.0348513
-0.0445093
-0.049797
-0.0492018
-0.0419162
-0.0282635
-0.00998982
-0.0102762
-0.0293052
-0.0441171
-0.0528667
-0.0548785
-0.050538
-0.0410648
-0.0282854
-0.0144105
-0.00204617
0.00628397
0.00890541
0.00566444
-0.00201188
-0.0115694
-0.0204429
-0.0274989
-0.0335877
-0.0407716
-0.0503868
-0.0617668
-0.072792
-0.081482
-0.087345
-0.0918294
-0.0967355
-0.101609
-0.103479
-0.099401
-0.0889164
-0.074543
-0.0601048
-0.0478834
-0.0370912
-0.0249836
-0.00987014
0.00692177
0.0226917
0.0364658
0.0492203
0.0619005
0.0742462
0.0854306
0.0950824
0.102982
0.108601
0.111893
0.113693
0.114948
0.115814
0.115814
0.11495
0.113696
0.111897
0.108607
0.102989
0.0950896
0.0854374
0.074252
0.0619047
0.0492221
0.036465
0.0226885
0.0069168
-0.00987586
-0.0249894
-0.0370966
-0.0478883
-0.0601088
-0.0745454
-0.0889167
-0.0993991
-0.103475
-0.101605
-0.0967322
-0.0918275
-0.0873444
-0.0814821
-0.0727922
-0.0617666
-0.0503863
-0.0407711
-0.0335876
-0.0274993
-0.0204436
-0.0115699
-0.00201203
0.00566452
0.00890546
0.0062837
-0.00204697
-0.0144118
-0.028287
-0.0410661
-0.0505385
-0.0548783
-0.0528658
-0.044116
-0.0293042
-0.0102758
-0.0110519
-0.0317368
-0.0484501
-0.0592891
-0.0632998
-0.0605075
-0.0519041
-0.0393175
-0.0251386
-0.0122565
-0.00349574
-0.000691406
-0.00387926
-0.0113607
-0.0204621
-0.0287457
-0.035297
-0.0412128
-0.0487356
-0.0590324
-0.0708478
-0.081482
-0.0887731
-0.0924375
-0.0944006
-0.0970271
-0.100162
-0.100569
-0.0947281
-0.0819184
-0.0649502
-0.0481079
-0.0339721
-0.0218821
-0.00901641
0.00662791
0.0239769
0.0401053
0.0533953
0.0644039
0.0743369
0.0835741
0.0917216
0.0984389
0.103361
0.105883
0.106018
0.104805
0.103583
0.103022
0.103023
0.103584
0.104807
0.106022
0.105888
0.103367
0.0984455
0.0917285
0.0835807
0.0743426
0.0644078
0.0533966
0.0401041
0.0239739
0.00662366
-0.00902134
-0.0218875
-0.0339775
-0.0481129
-0.0649539
-0.08192
-0.0947276
-0.100567
-0.100159
-0.0970247
-0.0943991
-0.0924369
-0.088773
-0.0814821
-0.0708478
-0.0590325
-0.0487358
-0.0412132
-0.0352975
-0.0287463
-0.0204625
-0.011361
-0.00387947
-0.000691576
-0.00349599
-0.012257
-0.0251395
-0.0393186
-0.0519051
-0.060508
-0.0632995
-0.0592882
-0.0484488
-0.0317357
-0.0110514
-0.011993
-0.0345584
-0.0531821
-0.0659873
-0.0719195
-0.0707993
-0.0634599
-0.0516689
-0.0378062
-0.0248158
-0.0157093
-0.0125511
-0.015442
-0.0225583
-0.0311136
-0.0386891
-0.0444634
-0.0496956
-0.0567735
-0.0667625
-0.0779971
-0.087345
-0.0924375
-0.0930531
-0.0914711
-0.0906157
-0.0907731
-0.0886938
-0.0805278
-0.0653792
-0.046208
-0.0275197
-0.0120978
0.000476401
0.0129268
0.0275233
0.0436004
0.0582688
0.069487
0.077509
0.0838157
0.0893788
0.0941846
0.0978971
0.100007
0.099843
0.097445
0.0939512
0.0909192
0.0893321
0.0893323
0.0909198
0.0939525
0.0974472
0.0998462
0.100012
0.0979026
0.094191
0.0893857
0.0838224
0.0775145
0.0694905
0.05827
0.0435996
0.027521
0.0129231
0.000471494
-0.0121036
-0.0275256
-0.0462129
-0.0653825
-0.0805292
-0.0886938
-0.0907723
-0.0906147
-0.0914702
-0.0930524
-0.0924369
-0.0873444
-0.0779967
-0.0667624
-0.0567736
-0.0496959
-0.0444636
-0.0386891
-0.0311135
-0.0225581
-0.015442
-0.0125514
-0.0157098
-0.0248165
-0.0378069
-0.0516696
-0.0634604
-0.0707994
-0.0719191
-0.0659865
-0.0531811
-0.0345576
-0.0119927
-0.0125808
-0.0362981
-0.0560691
-0.0701101
-0.0773955
-0.0776546
-0.0715706
-0.060755
-0.0474588
-0.0345939
-0.0253174
-0.0219527
-0.0247744
-0.0319183
-0.0404324
-0.0477625
-0.0530616
-0.0577167
-0.064261
-0.0736975
-0.0840511
-0.0918294
-0.0944006
-0.0914711
-0.0855847
-0.0802535
-0.0763746
-0.0709637
-0.060096
-0.0427758
-0.0219523
-0.00210236
0.0139063
0.026165
0.0371264
0.0492367
0.0623383
0.0738451
0.0815855
0.0856827
0.0878763
0.0895863
0.0910438
0.0918725
0.0914561
0.0891152
0.0849286
0.0800374
0.0760111
0.0738938
0.0738939
0.0760114
0.0800381
0.0849296
0.089117
0.0914588
0.0918766
0.0910493
0.089593
0.0878834
0.0856892
0.0815906
0.0738484
0.0623397
0.0492362
0.037124
0.0261606
0.0139003
-0.00210899
-0.0219585
-0.0427806
-0.0600993
-0.0709657
-0.0763758
-0.0802541
-0.0855846
-0.0914702
-0.0943991
-0.0918275
-0.0840493
-0.0736963
-0.0642604
-0.0577164
-0.0530612
-0.0477618
-0.0404315
-0.0319176
-0.0247741
-0.021953
-0.0253182
-0.034595
-0.0474597
-0.0607555
-0.0715706
-0.0776542
-0.0773949
-0.0701095
-0.0560686
-0.0362978
-0.0125807
-0.0124888
-0.0360991
-0.0559903
-0.0704938
-0.0786006
-0.0799248
-0.0749185
-0.0649458
-0.0521403
-0.0394664
-0.0302543
-0.0270415
-0.0302503
-0.0379759
-0.0470532
-0.054712
-0.0600502
-0.0646069
-0.0710655
-0.0803521
-0.0901923
-0.0967355
-0.0970271
-0.0906157
-0.0802535
-0.0700455
-0.0616114
-0.0524574
-0.0388067
-0.019616
0.00233005
0.0228014
0.038948
0.0504729
0.0594065
0.0682501
0.0773794
0.0847266
0.0882811
0.0882008
0.0864128
0.0845642
0.0829483
0.0811126
0.0784187
0.0742975
0.0689204
0.0633734
0.0590591
0.0568482
0.0568483
0.0590593
0.0633737
0.0689207
0.0742982
0.0784202
0.0811155
0.0829529
0.0845702
0.0864197
0.0882075
0.088287
0.0847312
0.0773824
0.0682511
0.0594052
0.050469
0.0389421
0.0227944
0.00232323
-0.0196219
-0.0388114
-0.0524612
-0.0616142
-0.0700474
-0.0802541
-0.0906147
-0.0970247
-0.0967322
-0.090189
-0.0803494
-0.0710637
-0.0646057
-0.0600492
-0.0547109
-0.0470521
-0.0379751
-0.03025
-0.0270419
-0.0302555
-0.0394678
-0.0521415
-0.0649462
-0.0749182
-0.0799241
-0.0785998
-0.0704932
-0.05599
-0.0360991
-0.0124888
-0.0119644
-0.034744
-0.0543449
-0.0691909
-0.0781658
-0.0806328
-0.076684
-0.0673739
-0.054798
-0.0421209
-0.0329081
-0.0298498
-0.0334361
-0.0416964
-0.0512791
-0.0592573
-0.064744
-0.0694679
-0.0762417
-0.0858692
-0.0957403
-0.101609
-0.100162
-0.0907731
-0.0763746
-0.0616114
-0.0488318
-0.0361668
-0.0201445
0.000310651
0.0227255
0.0432902
0.0592563
0.0699196
0.0767944
0.0823185
0.0873655
0.0905163
0.0901347
0.0864997
0.0815727
0.0769494
0.0727928
0.0685702
0.0637569
0.0580486
0.0517942
0.0460101
0.0418238
0.039781
0.0397811
0.041824
0.0460103
0.0517943
0.0580486
0.0637575
0.0685721
0.0727963
0.0769543
0.0815785
0.0865058
0.0901405
0.0905214
0.0873694
0.0823206
0.076794
0.0699165
0.0592509
0.0432836
0.0227189
0.000304608
-0.0201498
-0.0361716
-0.0488359
-0.0616142
-0.0763758
-0.0907723
-0.100159
-0.101605
-0.095736
-0.0858654
-0.0762387
-0.0694658
-0.0647425
-0.0592563
-0.0512784
-0.041696
-0.0334363
-0.0298507
-0.0329095
-0.0421225
-0.0547992
-0.0673745
-0.0766838
-0.0806319
-0.0781648
-0.0691899
-0.0543442
-0.0347436
-0.0119643
-0.0116379
-0.0340455
-0.0539482
-0.069823
-0.08033
-0.0844557
-0.0818454
-0.0732174