/*--------------------------------*- C++ -*----------------------------------*\
  =========                 |
  \\      /  F ield         | OpenFOAM: The Open Source CFD Toolbox
   \\    /   O peration     | Website:  https://openfoam.org
    \\  /    A nd           | Version:  10
     \\/     M anipulation  |
\*---------------------------------------------------------------------------*/
FoamFile
{
    format      ascii;
    class       volScalarField;
    location    "18";
    object      h_0;
}
// * * * * * * * * * * * * * * * * * * * * * * * * * * * * * * * * * * * * * //

dimensions      [0 1 0 0 0 0 0];

internalField   nonuniform List<scalar> 
10000
(
0.00355198
0.0101359
0.0151526
0.0176221
0.016892
0.0129893
0.00680542
-0.000136331
-0.00632952
-0.0110048
-0.01443
-0.0175365
-0.0211089
-0.0251209
-0.0287002
-0.0307306
-0.0306259
-0.0286977
-0.0258529
-0.0228689
-0.0198076
-0.0160038
-0.0106072
-0.00326084
0.00554063
0.0145847
0.0224172
0.0278673
0.0303808
0.030076
0.0275732
0.023724
0.0193554
0.0151016
0.0113396
0.00820878
0.00567719
0.00362003
0.00188681
0.000346295
-0.00109175
-0.00247271
-0.00380434
-0.00506872
-0.00623433
-0.00726579
-0.0081303
-0.00880109
-0.00925862
-0.00949039
-0.0094904
-0.00925863
-0.00880109
-0.00813028
-0.00726574
-0.00623424
-0.00506858
-0.00380417
-0.00247253
-0.00109161
0.000346358
0.00188674
0.00361979
0.00567681
0.00820832
0.0113392
0.0151015
0.019356
0.0237254
0.0275756
0.0300794
0.0303848
0.0278712
0.0224204
0.0145865
0.00554088
-0.00326193
-0.010609
-0.0160057
-0.0198092
-0.0228702
-0.0258543
-0.0286995
-0.030628
-0.0307324
-0.0287011
-0.0251208
-0.0211083
-0.017536
-0.0144301
-0.0110057
-0.00633065
-0.000136883
0.00680595
0.0129908
0.0168941
0.0176243
0.0151543
0.0101369
0.00355232
0.0101359
0.0288043
0.0427552
0.0493373
0.0470758
0.0364274
0.0199445
0.00140321
-0.0158482
-0.0303423
-0.0427221
-0.0545405
-0.0665201
-0.0775952
-0.0854463
-0.0880872
-0.0852816
-0.0787094
-0.0707526
-0.0628164
-0.0544382
-0.0437869
-0.0290948
-0.00998234
0.0121051
0.0344228
0.0539493
0.0683393
0.0764475
0.0783549
0.0750466
0.0679589
0.0585737
0.048151
0.0376138
0.0275485
0.0182704
0.00990897
0.00248436
-0.00403673
-0.00970781
-0.0145864
-0.0187288
-0.0221895
-0.0250223
-0.0272799
-0.0290129
-0.030267
-0.0310803
-0.0314799
-0.03148
-0.0310807
-0.0302677
-0.0290137
-0.0272809
-0.0250235
-0.0221909
-0.0187302
-0.0145879
-0.00970921
-0.00403805
0.00248319
0.00990802
0.0182698
0.0275485
0.0376146
0.048153
0.0585771
0.067964
0.0750535
0.0783633
0.0764567
0.068348
0.0539562
0.0344269
0.0121057
-0.00998483
-0.0290992
-0.0437917
-0.0544423
-0.0628195
-0.0707555
-0.0787131
-0.0852862
-0.0880919
-0.0854499
-0.0775969
-0.0665201
-0.05454
-0.0427224
-0.0303439
-0.0158501
0.00140234
0.019946
0.0364314
0.0470814
0.0493432
0.04276
0.0288073
0.0101369
0.0151526
0.0427552
0.0627056
0.071474
0.0678684
0.0534128
0.0316709
0.00660346
-0.0191155
-0.0446515
-0.0700424
-0.0945714
-0.115916
-0.130858
-0.137057
-0.134538
-0.125759
-0.114148
-0.10211
-0.0899167
-0.0761461
-0.0591362
-0.0382865
-0.0144444
0.0105426
0.0345534
0.0557506
0.0728277
0.0850205
0.0920227
0.093907
0.091073
0.0842015
0.0741898
0.0620597
0.048849
0.0355073
0.0228159
0.0113421
0.00143033
-0.00677805
-0.0133056
-0.0182922
-0.0219486
-0.0245165
-0.0262381
-0.0273337
-0.0279887
-0.0283454
-0.0284998
-0.0285001
-0.0283462
-0.02799
-0.0273355
-0.0262404
-0.0245193
-0.0219518
-0.0182957
-0.0133093
-0.00678165
0.00142706
0.0113395
0.0228143
0.035507
0.0488503
0.0620627
0.0741946
0.0842079
0.0910806
0.0939154
0.0920314
0.0850289
0.0728353
0.0557566
0.0345573
0.0105439
-0.0144457
-0.0382901
-0.059141
-0.0761509
-0.0899205
-0.102113
-0.114151
-0.125764
-0.134544
-0.137064
-0.130864
-0.11592
-0.0945733
-0.0700428
-0.0446515
-0.0191155
0.0066041
0.0316733
0.0534178
0.0678756
0.0714819
0.0627126
0.04276
0.0151543
0.0176221
0.0493373
0.071474
0.0806577
0.0768261
0.0624259
0.040511
0.0129739
-0.0197079
-0.0569557
-0.0961564
-0.132218
-0.159311
-0.173631
-0.17518
-0.167325
-0.154502
-0.139673
-0.123322
-0.104488
-0.0827031
-0.0590689
-0.0357628
-0.0147408
0.00316569
0.0182468
0.0313076
0.0430026
0.0534736
0.0623769
0.0691584
0.0733651
0.0748513
0.0738313
0.0708066
0.0664292
0.0613623
0.0561753
0.0512883
0.0469606
0.0433102
0.0403495
0.0380234
0.0362426
0.034909
0.0339312
0.0332328
0.0327556
0.0324586
0.0323161
0.0323161
0.0324585
0.0327555
0.0332326
0.0339308
0.0349085
0.036242
0.0380226
0.0403486
0.0433093
0.0469598
0.0512878
0.0561752
0.0613629
0.0664306
0.070809
0.0738345
0.0748551
0.0733693
0.0691624
0.0623805
0.0534767
0.0430052
0.0313101
0.0182494
0.00316848
-0.0147384
-0.0357617
-0.0590697
-0.0827057
-0.104491
-0.123325
-0.139676
-0.154505
-0.167331
-0.175188
-0.173641
-0.15932
-0.132224
-0.0961584
-0.0569542
-0.0197047
0.0129776
0.040515
0.0624311
0.0768329
0.0806658
0.0714819
0.0493432
0.0176243
0.016892
0.0470758
0.0678684
0.0768261
0.0746893
0.0633107
0.0433791
0.0140155
-0.0251845
-0.0714407
-0.118123
-0.157165
-0.18286
-0.194205
-0.194273
-0.18733
-0.175877
-0.15975
-0.13781
-0.110561
-0.0811988
-0.0542335
-0.0331219
-0.018902
-0.0104533
-0.00560974
-0.0021899
0.00143986
0.00625026
0.0126882
0.0208439
0.0305545
0.0414607
0.0530477
0.0647011
0.0757865
0.0857328
0.0941033
0.100638
0.105263
0.108072
0.109289
0.10922
0.108216
0.106628
0.104781
0.102959
0.101391
0.100252
0.0996537
0.0996539
0.100253
0.101393
0.102961
0.104783
0.106631
0.10822
0.109225
0.109293
0.108077
0.105268
0.100643
0.0941074
0.085736
0.0757884
0.0647018
0.0530471
0.0414589
0.0305519
0.0208408
0.0126849
0.00624734
0.00143775
-0.00219061
-0.00560854
-0.0104499
-0.0188967
-0.0331159
-0.0542287
-0.0811969
-0.110563
-0.137814
-0.159755
-0.175882
-0.187335
-0.194281
-0.194215
-0.182871
-0.157174
-0.118128
-0.0714403
-0.0251797
0.014022
0.0433854
0.0633164
0.0746953
0.0768329
0.0678756
0.0470814
0.0168942
0.0129893
0.0364274
0.0534128
0.0624259
0.0633107
0.0551634
0.0356674
0.00316998
-0.0401762
-0.0875093
-0.130073
-0.161651
-0.181052
-0.191046
-0.195042
-0.194122
-0.186516
-0.169936
-0.144786
-0.115211
-0.0869537
-0.0641771
-0.0480779
-0.03774
-0.0316164
-0.0282758
-0.0264325
-0.0248009
-0.022059
-0.0170219
-0.00893879
0.00230983
0.016207
0.0317556
0.047737
0.0629712
0.0765081
0.087731
0.0963715
0.102461
0.106252
0.108131
0.108543
0.107931
0.106698
0.105189
0.103677
0.102374
0.101427
0.100931
0.100931
0.101428
0.102375
0.103679
0.105191
0.106701
0.107935
0.108547
0.108136
0.106257
0.102466
0.0963771
0.0877363
0.0765125
0.0629742
0.0477383
0.0317549
0.0162043
0.00230563
-0.00894388
-0.0170271
-0.0220635
-0.0248041
-0.0264341
-0.0282756
-0.0316144
-0.0377362
-0.0480726
-0.0641712
-0.086949
-0.11521
-0.144789
-0.169942
-0.186523
-0.194128
-0.195048
-0.191052
-0.18106
-0.16166
-0.13008
-0.0875122
-0.0401736
0.00317671
0.0356754
0.0551704
0.0633164
0.0624311
0.0534178
0.0364314
0.0129909
0.00680542
0.0199445
0.0316709
0.040511
0.0433791
0.0356674
0.013852
-0.0208899
-0.0616911
-0.0994538
-0.128147
-0.14741
-0.160761
-0.171625
-0.180367
-0.184083
-0.179248
-0.165313
-0.145912
-0.126219
-0.10922
-0.0947012
-0.0812234
-0.0682133
-0.056169
-0.0457196
-0.0369877
-0.0295466
-0.0226966
-0.0158795
-0.00891647
-0.00195689
0.00468474
0.0107095
0.0159645
0.0204681
0.0243686
0.0278783
0.0311996
0.03448
0.0377926
0.0411354
0.044452
0.047649
0.0506208
0.0532628
0.0554843
0.0572118
0.0583921
0.0589905
0.0589905
0.0583919
0.0572115
0.0554837
0.0532621
0.0506199
0.0476479
0.0444508
0.0411342
0.0377915
0.034479
0.0311989
0.0278781
0.0243688
0.0204688
0.0159654
0.0107105
0.00468558
-0.00195646
-0.00891653
-0.01588
-0.0226972
-0.0295469
-0.0369877
-0.0457193
-0.0561687
-0.0682131
-0.0812231
-0.0947002
-0.109218
-0.126218
-0.145913
-0.165317
-0.179254
-0.184089
-0.180371
-0.171628
-0.160764
-0.147415
-0.128153
-0.0994596
-0.0616931
-0.0208866
0.0138592
0.0356754
0.0433854
0.040515
0.0316734
0.019946
0.00680598
-0.000136331
0.00140321
0.00660346
0.0129739
0.0140155
0.00316998
-0.0208899
-0.0522418
-0.0815124
-0.102427
-0.115152
-0.124105
-0.133391
-0.143882
-0.153087
-0.157394
-0.155494
-0.14998
-0.144762
-0.140917
-0.13597
-0.127086
-0.113887
-0.0980316
-0.0812602
-0.0645933
-0.0487382
-0.0344253
-0.0224965
-0.0138075
-0.00884995
-0.00749312
-0.00901984
-0.012299
-0.0160664
-0.0192065
-0.0209157
-0.0207705
-0.0187114
-0.0149484
-0.00987131
-0.00394608
0.00235919
0.00862037
0.0144897
0.0196948
0.0240413
0.0273942
0.0296696
0.0308181
0.0308181
0.0296695
0.0273938
0.0240407
0.0196938
0.0144883
0.00861842
0.0023566
-0.00394936
-0.00987527
-0.0149529
-0.0187162
-0.0207753
-0.02092
-0.0192098
-0.0160682
-0.0122991
-0.00901813
-0.00748988
-0.00884576
-0.0138031
-0.0224926
-0.0344224
-0.0487364
-0.0645926
-0.0812606
-0.0980333
-0.11389
-0.12709
-0.135973
-0.140919
-0.144762
-0.14998
-0.155496
-0.157397
-0.15309
-0.143883
-0.133392
-0.124106
-0.115156
-0.102433
-0.0815178
-0.0522436
-0.0208866
0.0031767
0.014022
0.0129776
0.00660411
0.00140237
-0.00013685
-0.00632952
-0.0158482
-0.0191155
-0.0197079
-0.0251845
-0.0401762
-0.0616911
-0.0815124
-0.0933677
-0.0974616
-0.0985168
-0.100964
-0.106348
-0.11342
-0.11946
-0.122835
-0.125254
-0.13005
-0.137599
-0.144119
-0.145629
-0.141502
-0.133458
-0.122618
-0.10897
-0.0929329
-0.0759508
-0.0598687
-0.0463872
-0.0365103
-0.0302019
-0.026695
-0.0249077
-0.0237678
-0.0224974
-0.0206845
-0.0182147
-0.015199
-0.0118494
-0.00838979
-0.00502535
-0.00189139
0.000917813
0.00336253
0.00542815
0.00711956
0.00845046
0.0094336
0.0100825
0.0104046
0.0104046
0.0100826
0.00943375
0.00845067
0.0071198
0.00542841
0.00336277
0.00091798
-0.00189137
-0.00502557
-0.00839033
-0.0118503
-0.0152003
-0.0182164
-0.0206864
-0.022499
-0.0237688
-0.0249078
-0.0266938
-0.0301995
-0.036507
-0.0463838
-0.0598661
-0.0759496
-0.0929334
-0.108972
-0.12262
-0.133461
-0.141506
-0.145633
-0.144123
-0.137601
-0.130049
-0.125253
-0.122835
-0.11946
-0.113421
-0.106347
-0.100963
-0.0985172
-0.0974647
-0.0933733
-0.0815178
-0.0616931
-0.0401736
-0.0251797
-0.0197047
-0.0191155
-0.0158501
-0.00633062
-0.0110048
-0.0303423
-0.0446515
-0.0569557
-0.0714407
-0.0875093
-0.0994538
-0.102427
-0.0974616
-0.0898509
-0.0841378
-0.0820134
-0.0831637
-0.0857786
-0.087726
-0.0896074
-0.0950107
-0.105608
-0.118118
-0.128142
-0.134749
-0.139306
-0.141629
-0.139738
-0.132884
-0.122564
-0.110672
-0.0984562
-0.0865574
-0.0748572
-0.0629819
-0.0509174
-0.0389663
-0.0276852
-0.0177471
-0.00966525
-0.00370599
0.000103596
0.00199621
0.00232143
0.00149756
-5.68237e-05
-0.00199916
-0.0040341
-0.00597495
-0.00767937
-0.00908205
-0.0101407
-0.0108479
-0.0112
-0.0112
-0.010848
-0.0101408
-0.0090821
-0.00767931
-0.00597468
-0.00403351
-0.00199815
-5.53089e-05
0.00149963
0.00232406
0.0019993
0.000106957
-0.00370264
-0.00966225
-0.0177448
-0.0276838
-0.0389659
-0.0509179
-0.0629828
-0.0748582
-0.0865581
-0.0984569
-0.110673
-0.122566
-0.132887
-0.139742
-0.141633
-0.139309
-0.134751
-0.128144
-0.11812
-0.105607
-0.0950082
-0.0896054
-0.0877253
-0.0857783
-0.0831627
-0.0820119
-0.0841366
-0.0898512
-0.0974647
-0.102433
-0.0994596
-0.0875122
-0.0714403
-0.0569542
-0.0446515
-0.0303438
-0.0110057
-0.01443
-0.0427221
-0.0700424
-0.0961564
-0.118123
-0.130073
-0.128147
-0.115152
-0.0985168
-0.0841378
-0.0740385
-0.0683639
-0.0659073
-0.0636832
-0.0604661
-0.0600494
-0.0667124
-0.0789614
-0.0919826
-0.10405
-0.116292
-0.127976
-0.136002
-0.139016
-0.138902
-0.137394
-0.13419
-0.128578
-0.120046
-0.108352
-0.0943097
-0.0793138
-0.0646684
-0.0515142
-0.0405338
-0.0318904
-0.0254757
-0.0209548
-0.0178881
-0.0159187
-0.0146716
-0.0139173
-0.013459
-0.0131759
-0.0130022
-0.0128791
-0.0128006
-0.0127394
-0.0127043
-0.0126845
-0.0126845
-0.0127044
-0.0127395
-0.0128008
-0.0128793
-0.0130023
-0.0131759
-0.0134589
-0.0139168
-0.0146708
-0.0159175
-0.0178864
-0.0209526
-0.025473
-0.0318875
-0.0405308
-0.0515117
-0.0646669
-0.0793136
-0.0943111
-0.108354
-0.120049
-0.128582
-0.134193
-0.137396
-0.138904
-0.139019
-0.136006
-0.127978
-0.116293
-0.10405
-0.0919822
-0.0789598
-0.0667089
-0.0600456
-0.0604644
-0.0636831
-0.065907
-0.0683626
-0.074037
-0.0841366
-0.0985172
-0.115156
-0.128153
-0.13008
-0.118128
-0.0961583
-0.0700428
-0.0427224
-0.0144301
-0.0175365
-0.0545405
-0.0945714
-0.132218
-0.157165
-0.161651
-0.14741
-0.124105
-0.100964
-0.0820134
-0.0683639
-0.059741
-0.0527771
-0.0440116
-0.0364743
-0.0370662
-0.0465278
-0.0588717
-0.0704081
-0.0822358
-0.0945724
-0.104849
-0.112024
-0.118704
-0.12674
-0.134025
-0.13809
-0.138455
-0.135081
-0.128755
-0.121005
-0.112655
-0.104151
-0.0957721
-0.0874254
-0.0790492
-0.0707363
-0.062512
-0.0545784
-0.0471203
-0.040245
-0.0341419
-0.0287947
-0.0242924
-0.0205577
-0.0175848
-0.0152932
-0.0136379
-0.0125639
-0.0120364
-0.0120363
-0.0125637
-0.0136375
-0.0152928
-0.0175844
-0.0205572
-0.024292
-0.0287943
-0.0341416
-0.040245
-0.0471205
-0.0545789
-0.0625126
-0.0707371
-0.07905
-0.0874262
-0.0957727
-0.104151
-0.112655
-0.121006
-0.128757
-0.135084
-0.138459
-0.138094
-0.134028
-0.126741
-0.118704
-0.112025
-0.104851
-0.094574
-0.0822362
-0.0704079
-0.0588708
-0.0465247
-0.0370609
-0.03647
-0.0440106
-0.0527779
-0.059741
-0.0683627
-0.0820119
-0.100963
-0.124106
-0.147415
-0.16166
-0.157174
-0.132224
-0.0945733
-0.0545399
-0.017536
-0.0211089
-0.0665201
-0.115916
-0.159311
-0.18286
-0.181052
-0.160761
-0.133391
-0.106348
-0.0831637
-0.0659073
-0.0527771
-0.0389962
-0.0256004
-0.0208335
-0.0277111
-0.0386301
-0.0466782
-0.0529476
-0.06002
-0.0670459
-0.0734182
-0.0817693
-0.0940383
-0.107001
-0.116681
-0.123503
-0.128565
-0.131859
-0.134273
-0.13581
-0.135652
-0.13367
-0.12974
-0.123872
-0.116588
-0.108361
-0.099594
-0.0908903
-0.0824359
-0.0745845
-0.0674609
-0.0611199
-0.0556811
-0.0510391
-0.047289
-0.0442977
-0.0421211
-0.0406655
-0.0399539
-0.0399538
-0.0406653
-0.0421208
-0.0442973
-0.0472886
-0.0510386
-0.0556806
-0.0611195
-0.0674606
-0.0745844
-0.0824362
-0.0908911
-0.0995953
-0.108363
-0.11659
-0.123874
-0.129743
-0.133673
-0.135654
-0.135812
-0.134274
-0.131861
-0.128566
-0.123505
-0.116683
-0.107002
-0.0940377
-0.0817671
-0.0734165
-0.0670456
-0.0600202
-0.052948
-0.0466793
-0.0386304
-0.0277079
-0.0208273
-0.0255958
-0.0389955
-0.0527779
-0.0659071
-0.0831627
-0.106347
-0.133392
-0.160764
-0.18106
-0.182871
-0.15932
-0.11592
-0.0665201
-0.0211082
-0.0251209
-0.0775952
-0.130858
-0.173631
-0.194205
-0.191046
-0.171625
-0.143882
-0.11342
-0.0857786
-0.0636832
-0.0440116
-0.0256004
-0.0159334
-0.0201038
-0.0297854
-0.0342695
-0.0340847
-0.0348902
-0.0378854
-0.0421894
-0.0491722
-0.0603588
-0.0728313
-0.0820249
-0.0893224
-0.0980106
-0.106982
-0.115573
-0.123893
-0.130258
-0.134313
-0.136429
-0.136469
-0.13488
-0.132218
-0.128543
-0.124299
-0.11975
-0.114893
-0.110212
-0.105529
-0.101249
-0.0972745
-0.0937935
-0.0908279
-0.0884019
-0.0865867
-0.0853482
-0.0847386
-0.0847386
-0.0853482
-0.0865867
-0.0884019
-0.0908279
-0.0937936
-0.0972746
-0.101249
-0.105529
-0.110213
-0.114894
-0.119751
-0.1243
-0.128544
-0.13222
-0.134882
-0.136472
-0.136432
-0.134315
-0.13026
-0.123895
-0.115574
-0.106982
-0.0980103
-0.0893221
-0.0820258
-0.0728324
-0.0603578
-0.0491695
-0.0421869
-0.0378837
-0.0348892
-0.0340853
-0.0342722
-0.0297872
-0.0201008
-0.015927
-0.0255958
-0.0440106
-0.0636831
-0.0857783
-0.113421
-0.143883
-0.171628
-0.191052
-0.194215
-0.173641
-0.130864
-0.0775969
-0.0251208
-0.0287002
-0.0854463
-0.137057
-0.17518
-0.194273
-0.195042
-0.180367
-0.153087
-0.11946
-0.087726
-0.0604661
-0.0364743
-0.0208335
-0.0201038
-0.0275655
-0.0295315
-0.0244896
-0.0206554
-0.0212298
-0.0243171
-0.0292567
-0.0365885
-0.0449212
-0.0506527
-0.054866
-0.0627553
-0.0729166
-0.0820098
-0.0912851
-0.099768
-0.106376
-0.11242
-0.117615
-0.121748
-0.125344
-0.128193
-0.130119
-0.131654
-0.132352
-0.132623
-0.132507
-0.131873
-0.131228
-0.130159
-0.129266
-0.12818
-0.12735
-0.126565
-0.126071
-0.125787
-0.125787
-0.126071
-0.126565
-0.12735
-0.12818
-0.129266
-0.13016
-0.131229
-0.131874
-0.132508
-0.132624
-0.132353
-0.131655
-0.13012
-0.128194
-0.125344
-0.121749
-0.117616
-0.112421
-0.106377
-0.0997691
-0.0912858
-0.08201
-0.0729164
-0.0627538
-0.0548644
-0.050653
-0.0449222
-0.0365882
-0.029255
-0.024315
-0.0212274
-0.0206533
-0.02449
-0.0295351
-0.027568
-0.0201008
-0.0208273
-0.03647
-0.0604644
-0.0877253
-0.11946
-0.15309
-0.180371
-0.195048
-0.19428
-0.175188
-0.137064
-0.0854499
-0.0287011
-0.0307306
-0.0880872
-0.134538
-0.167325
-0.18733
-0.194122
-0.184083
-0.157394
-0.122835
-0.0896074
-0.0600494
-0.0370662
-0.0277111
-0.0297854
-0.0295315
-0.0216432
-0.0146942
-0.0139822
-0.0166499
-0.0200681
-0.0235491
-0.0270855
-0.0296343
-0.0309255
-0.0357209
-0.0442503
-0.0506334
-0.0565049
-0.063942
-0.0702896
-0.0770345
-0.0847043
-0.0918638
-0.0990716
-0.1063
-0.112717
-0.11868
-0.124066
-0.128179
-0.131935
-0.134334
-0.136268
-0.137353
-0.137875
-0.138118
-0.137898
-0.137757
-0.137382
-0.137215
-0.137051
-0.137051
-0.137216
-0.137383
-0.137758
-0.137899
-0.138119
-0.137877
-0.137354
-0.13627
-0.134336
-0.131937
-0.12818
-0.124067
-0.118681
-0.112717
-0.106301
-0.0990714
-0.0918634
-0.0847037
-0.0770336
-0.070289
-0.0639418
-0.0565043
-0.0506334
-0.0442502
-0.035719
-0.0309237
-0.0296342
-0.0270862
-0.0235495
-0.0200679
-0.0166486
-0.0139797
-0.0146916
-0.0216436
-0.0295351
-0.0297872
-0.0277079
-0.0370609
-0.0600456
-0.0896054
-0.122835
-0.157397
-0.184089
-0.194128
-0.187335
-0.167331
-0.134544
-0.0880919
-0.0307324
-0.0306259
-0.0852816
-0.125759
-0.154502
-0.175877
-0.186516
-0.179248
-0.155494
-0.125254
-0.0950107
-0.0667124
-0.0465278
-0.0386301
-0.0342695
-0.0244896
-0.0146942
-0.0121111
-0.0142403
-0.0168047
-0.0179313
-0.0176198
-0.0178254
-0.018085
-0.0196889
-0.0252742
-0.0293995
-0.0312422
-0.0366391
-0.0423898
-0.0474824
-0.0548071
-0.0619486
-0.0688327
-0.0762622
-0.0830483
-0.0888615
-0.094504
-0.0987009
-0.10227
-0.105332
-0.107191
-0.10939
-0.110397
-0.111906
-0.112609
-0.11358
-0.114114
-0.114659
-0.114961
-0.115137
-0.115137
-0.114961
-0.114658
-0.114114
-0.11358
-0.112609
-0.111906
-0.110397
-0.10939
-0.107191
-0.105332
-0.102271
-0.0987017
-0.094505
-0.0888623
-0.0830491
-0.0762628
-0.0688327
-0.0619485
-0.0548065
-0.0474813
-0.0423891
-0.0366381
-0.031241
-0.0293996
-0.0252741
-0.0196872
-0.0180836
-0.0178248
-0.0176201
-0.0179324
-0.0168055
-0.0142396
-0.0121086
-0.0146916
-0.02449
-0.0342722
-0.0386304
-0.0465247
-0.0667089
-0.0950082
-0.125253
-0.155496
-0.179254
-0.186523
-0.175882
-0.154505
-0.125764
-0.0852862
-0.030628
-0.0286977
-0.0787094
-0.114148
-0.139673
-0.15975
-0.169936
-0.165313
-0.14998
-0.13005
-0.105608
-0.0789614
-0.0588717
-0.0466782
-0.0340847
-0.0206554
-0.0139822
-0.0142403
-0.0160838
-0.016197
-0.0134514
-0.0114306
-0.0121597
-0.0126972
-0.0151337
-0.0186101
-0.0186048
-0.0211055
-0.0262075
-0.0285159
-0.0326332
-0.0377876
-0.0414526
-0.0458756
-0.0501601
-0.0534639
-0.0569912
-0.0607507
-0.0637317
-0.0681392
-0.0717
-0.0760896
-0.0803804
-0.0842202
-0.0884909
-0.0915172
-0.0949617
-0.0970402
-0.099205
-0.100261
-0.100991
-0.100991
-0.100261
-0.099205
-0.0970402
-0.0949617
-0.0915169
-0.0884906
-0.0842196
-0.0803797
-0.0760886
-0.0716988
-0.0681381
-0.0637304
-0.0607498
-0.0569905
-0.0534635
-0.0501601
-0.0458756
-0.0414526
-0.0377879
-0.0326327
-0.0285154
-0.0262076
-0.0211046
-0.0186041
-0.0186106
-0.0151335
-0.0126962
-0.0121586
-0.0114293
-0.0134514
-0.0161985
-0.0160849
-0.0142396
-0.0139797
-0.0206534
-0.0340853
-0.0466794
-0.0588708
-0.0789598
-0.105607
-0.130049
-0.14998
-0.165317
-0.169942
-0.159755
-0.139676
-0.114151
-0.0787131
-0.0286995
-0.0258529
-0.0707526
-0.10211
-0.123322
-0.13781
-0.144786
-0.145912
-0.144762
-0.137599
-0.118118
-0.0919826
-0.0704081
-0.0529476
-0.0348902
-0.0212298
-0.0166499
-0.0168047
-0.016197
-0.0123207
-0.00832574
-0.00955843
-0.0117603
-0.0118161
-0.0138871
-0.0141373
-0.0130727
-0.016086
-0.0168787
-0.0170238
-0.020444
-0.021914
-0.0235722
-0.0264903
-0.0290393
-0.0321552
-0.0369198
-0.0414271
-0.0466478
-0.0526064
-0.0569576
-0.0627325
-0.0660577
-0.0703127
-0.0727935
-0.075318
-0.0770574
-0.078304
-0.0793349
-0.0798148
-0.0801557
-0.0801559
-0.079815
-0.0793353
-0.0783044
-0.0770581
-0.0753187
-0.0727943
-0.0703136
-0.0660585
-0.0627333
-0.0569579
-0.0526065
-0.0466473
-0.0414262
-0.0369188
-0.0321538
-0.0290381
-0.0264894
-0.0235712
-0.0219136
-0.0204439
-0.017023
-0.0168786
-0.0160862
-0.0130719
-0.0141374
-0.0138878
-0.0118163
-0.0117606
-0.00955729
-0.00832373
-0.0123206
-0.0161985
-0.0168055
-0.0166486
-0.0212274
-0.0348892
-0.0529481
-0.0704079
-0.0919822
-0.11812
-0.137601
-0.144762
-0.145913
-0.144789
-0.137814
-0.123325
-0.102113
-0.0707555
-0.0258543
-0.0228689
-0.0628164
-0.0899167
-0.104488
-0.110561
-0.115211
-0.126219
-0.140917
-0.144119
-0.128142
-0.10405
-0.0822358
-0.06002
-0.0378854
-0.0243171
-0.0200681
-0.0179313
-0.0134514
-0.00832574
-0.00878723
-0.0129898
-0.0122504
-0.0105035
-0.0110813
-0.00881501
-0.008829
-0.010777
-0.00984062
-0.0119509
-0.0138984
-0.0140713
-0.0166698
-0.0193057
-0.0220335
-0.0255905
-0.0292801
-0.0312604
-0.0343422
-0.0352318
-0.0362708
-0.0372214
-0.0366785
-0.0379475
-0.0370278
-0.0383155
-0.0377239
-0.0387169
-0.038506
-0.0390342
-0.0389999
-0.0389999
-0.0390339
-0.0385056
-0.0387165
-0.0377233
-0.038315
-0.0370272
-0.0379473
-0.0366782
-0.0372216
-0.0362712
-0.0352324
-0.0343432
-0.0312611
-0.0292809
-0.0255908
-0.0220333
-0.0193055
-0.0166692
-0.0140705
-0.0138984
-0.0119506
-0.00983987
-0.0107769
-0.00882824
-0.00881416
-0.0110814
-0.0105036
-0.0122516
-0.0129912
-0.008786
-0.00832374
-0.0134514
-0.0179324
-0.0200679
-0.024315
-0.0378837
-0.0600203
-0.0822362
-0.10405
-0.128144
-0.144123
-0.140919
-0.126218
-0.11521
-0.110563
-0.104491
-0.0899205
-0.0628195
-0.0228702
-0.0198076
-0.0544382
-0.0761461
-0.0827031
-0.0811988
-0.0869537
-0.10922
-0.13597
-0.145629
-0.134749
-0.116292
-0.0945724
-0.0670459
-0.0421894
-0.0292567
-0.0235491
-0.0176198
-0.0114306
-0.00955843
-0.0129898
-0.0129319
-0.00776339
-0.00716038
-0.00793925
-0.00680502
-0.00934402
-0.0102919
-0.00990425
-0.011552
-0.0109312
-0.0116868
-0.0133632
-0.0139378
-0.0143995
-0.0147857
-0.0141512
-0.013356
-0.0139898
-0.0129258
-0.0151144
-0.0154061
-0.0180005
-0.0199544
-0.0220913
-0.0248001
-0.0262489
-0.0286209
-0.0294374
-0.030769
-0.0310319
-0.0310318
-0.030769
-0.0294372
-0.0286208
-0.0262485
-0.0247997
-0.0220905
-0.0199535
-0.0179994
-0.0154047
-0.0151132
-0.0129243
-0.0139889
-0.0133553
-0.0141509
-0.014786
-0.0143998
-0.0139382
-0.0133636
-0.0116867
-0.0109311
-0.0115523
-0.00990425
-0.0102923
-0.00934425
-0.0068043
-0.00793875
-0.0071592
-0.00776254
-0.0129336
-0.0129912
-0.0095573
-0.0114293
-0.0176201
-0.0235495
-0.0292551
-0.0421869
-0.0670456
-0.094574
-0.116293
-0.134751
-0.145633
-0.135973
-0.109218
-0.086949
-0.0811969
-0.0827057
-0.0761509
-0.0544423
-0.0198092
-0.0160038
-0.0437869
-0.0591362
-0.0590689
-0.0542335
-0.0641771
-0.0947012
-0.127086
-0.141502
-0.139306
-0.127976
-0.104849
-0.0734182
-0.0491722
-0.0365885
-0.0270855
-0.0178254
-0.0121597
-0.0117603
-0.0122504
-0.00776339
-0.00514749
-0.00904483
-0.00990547
-0.00927372
-0.0106575
-0.00862393
-0.0074782
-0.00767457
-0.0071638
-0.00789853
-0.00757528
-0.00713159
-0.00676478
-0.00744935
-0.00785303
-0.0102661
-0.0125216
-0.0147993
-0.0184686
-0.019485
-0.0230242
-0.0230837
-0.0254224
-0.025184
-0.0262658
-0.0260801
-0.0264019
-0.0263257
-0.0263715
-0.0263715
-0.026326
-0.0264021
-0.0260806
-0.0262663
-0.0251846
-0.0254232
-0.0230844
-0.0230251
-0.0194854
-0.0184691
-0.0147993
-0.0125212
-0.0102655
-0.00785194
-0.00744845
-0.00676398
-0.00713108
-0.00757518
-0.00789859
-0.00716359
-0.00767433
-0.00747778
-0.00862398
-0.0106583
-0.00927419
-0.00990633
-0.00904494
-0.00514553
-0.00776254
-0.0122516
-0.0117606
-0.0121586
-0.0178249
-0.0270862
-0.0365882
-0.0491695
-0.0734165
-0.104851
-0.127978
-0.139309
-0.141506
-0.12709
-0.0947001
-0.0641712
-0.0542288
-0.0590697
-0.059141
-0.0437917
-0.0160057
-0.0106072
-0.0290948
-0.0382865
-0.0357628
-0.0331219
-0.0480779
-0.0812234
-0.113887
-0.133458
-0.141629
-0.136002
-0.112024
-0.0817693
-0.0603588
-0.0449212
-0.0296343
-0.018085
-0.0126972
-0.0118161
-0.0105035
-0.00716038
-0.00904483
-0.0122397
-0.00860058
-0.00660955
-0.00681452
-0.0048575
-0.00600923
-0.0073462
-0.0071165
-0.00718483
-0.00739146
-0.00790117
-0.00902423
-0.0108492
-0.0113596
-0.0130414
-0.0121666
-0.0122632
-0.0109332
-0.00936114
-0.00861853
-0.00633277
-0.00636337
-0.00434288
-0.00477374
-0.00346259
-0.00388082
-0.0032807
-0.00344432
-0.00344423
-0.00328052
-0.00388051
-0.00346216
-0.00477332
-0.00434234
-0.00636303
-0.0063324
-0.00861851
-0.00936129
-0.0109336
-0.012264
-0.0121673
-0.0130424
-0.0113603
-0.0108497
-0.00902425
-0.00790088
-0.00739118
-0.0071846
-0.00711656
-0.00734647
-0.00600883
-0.00485667
-0.00681411
-0.00660884
-0.00860097
-0.0122416
-0.00904494
-0.0071592
-0.0105036
-0.0118163
-0.0126962
-0.0180836
-0.0296343
-0.0449222
-0.0603579
-0.0817671
-0.112025
-0.136006
-0.141632
-0.133461
-0.11389
-0.0812231
-0.0480726
-0.0331159
-0.0357616
-0.0382901
-0.0290992
-0.0106091
-0.00326084
-0.00998234
-0.0144444
-0.0147408
-0.018902
-0.03774
-0.0682133
-0.0980316
-0.122618
-0.139738
-0.139016
-0.118704
-0.0940383
-0.0728313
-0.0506527
-0.0309255
-0.0196889
-0.0151337
-0.0138871
-0.0110813
-0.00793925
-0.00990547
-0.00860058
-0.00366133
-0.00601233
-0.00806711
-0.00729629
-0.00918272
-0.00830253
-0.00680384
-0.0074048
-0.00765315
-0.00725451
-0.00747116
-0.00638897
-0.00465762
-0.00417628
-0.00195246
-0.00252186
-0.00159814
-0.00279417
-0.00352332
-0.0047151
-0.00639834
-0.00724159
-0.00899755
-0.00946432
-0.0106958
-0.0108884
-0.0113221
-0.0113221
-0.0108884
-0.0106959
-0.00946424
-0.00899748
-0.00724132
-0.006398
-0.00471452
-0.0035226
-0.0027933
-0.00159711
-0.002521
-0.00195157
-0.0041759
-0.00465741
-0.00638921
-0.00747168
-0.00725477
-0.00765348
-0.0074048
-0.0068035
-0.00830294
-0.00918338
-0.00729647
-0.00806764
-0.00601156
-0.00365951
-0.00860097
-0.00990633
-0.00793875
-0.0110814
-0.0138878
-0.0151335
-0.0196872
-0.0309237
-0.050653
-0.0728324
-0.0940377
-0.118704
-0.139019
-0.139742
-0.12262
-0.0980333
-0.0682131
-0.0377362
-0.0188967
-0.0147383
-0.0144457
-0.00998485
-0.00326199
0.00554063
0.0121051
0.0105426
0.00316569
-0.0104533
-0.0316164
-0.056169
-0.0812602
-0.10897
-0.132884
-0.138902
-0.12674
-0.107001
-0.0820249
-0.054866
-0.0357209
-0.0252742
-0.0186101
-0.0141373
-0.00881501
-0.00680502
-0.00927372
-0.00660955
-0.00601233
-0.0110592
-0.00883769
-0.0062507
-0.00695144
-0.00484181
-0.0053096
-0.00625957
-0.00523336
-0.00463071
-0.00483017
-0.00395963
-0.00495948
-0.00642066
-0.0069086
-0.00979784
-0.00964194
-0.0118897
-0.0115011
-0.0122714
-0.0119329
-0.0116039
-0.0113917
-0.0107025
-0.0105975
-0.0101168
-0.0100863
-0.0100863
-0.0101168
-0.0105978
-0.0107028
-0.0113921
-0.0116044
-0.0119335
-0.0122721
-0.0115018
-0.0118904
-0.00964234
-0.00979827
-0.00690844
-0.00642043
-0.00495896
-0.00395888
-0.00482986
-0.00463035
-0.00523329
-0.00625992
-0.00530928
-0.00484132
-0.00695142
-0.00625023
-0.00883856
-0.0110608
-0.00601156
-0.00660884
-0.00927419
-0.0068043
-0.00881417
-0.0141375
-0.0186106
-0.0252741
-0.035719
-0.0548644
-0.0820258
-0.107002
-0.126741
-0.138904
-0.132887
-0.108972
-0.0812606
-0.0561687
-0.0316144
-0.0104499
0.00316852
0.0105439
0.0121057
0.00554082
0.0145847
0.0344228
0.0345534
0.0182468
-0.00560974
-0.0282758
-0.0457196
-0.0645933
-0.0929329
-0.122564
-0.137394
-0.134025
-0.116681
-0.0893224
-0.0627553
-0.0442503
-0.0293995
-0.0186048
-0.0130727
-0.008829
-0.00934402
-0.0106575
-0.00681452
-0.00806711
-0.00883769
-0.00329215
-0.00475729
-0.006907
-0.00576023
-0.00714349
-0.00660922
-0.00588291
-0.00656543
-0.00745818
-0.00715649
-0.00863355
-0.00772426
-0.00700692
-0.00679321
-0.00396993
-0.00450421
-0.00144995
-0.00211332
-0.000101864
-0.000518457
0.00034905
0.00018839
0.000393659
0.000360371
0.000370012
0.000369993
0.000360576
0.000393823
0.000188754
0.000349376
-0.000518034
-0.000101441
-0.00211304
-0.00144958
-0.00450429
-0.00396989
-0.0067937
-0.0070074
-0.00772481
-0.00863429
-0.00715668
-0.00745842
-0.00656538
-0.00588253
-0.00660936
-0.00714373
-0.00576014
-0.00690742
-0.00475645
-0.00329069
-0.00883856
-0.00806765
-0.00681411
-0.0106583
-0.00934425
-0.00882824
-0.0130719
-0.0186041
-0.0293996
-0.0442502
-0.0627538
-0.0893221
-0.116683
-0.134028
-0.137396
-0.122566
-0.0929334
-0.0645927
-0.0457193
-0.0282756
-0.00560851
0.0182495
0.0345573
0.0344268
0.0145865
0.0224172
0.0539493
0.0557506
0.0313076
-0.0021899
-0.0264325
-0.0369877
-0.0487382
-0.0759508
-0.110672
-0.13419
-0.13809
-0.123503
-0.0980106
-0.0729166
-0.0506334
-0.0312422
-0.0211055
-0.016086
-0.010777
-0.0102919
-0.00862393
-0.0048575
-0.00729629
-0.0062507
-0.00475729
-0.00948639
-0.00789788
-0.00571899
-0.0067327
-0.00575057
-0.00572017
-0.00619397
-0.0056167
-0.00413211
-0.00462727
-0.0022482
-0.0031973
-0.00264612
-0.00280145
-0.00462913
-0.00384661
-0.00672933
-0.00562825
-0.00819427
-0.0073047
-0.00896846
-0.0084608
-0.00922429
-0.00906685
-0.00906693
-0.0092243
-0.00846092
-0.00896854
-0.00730476
-0.00819438
-0.00562811
-0.00672933
-0.0038462
-0.00462887
-0.00280087
-0.00264554
-0.00319689
-0.00224757
-0.00462728
-0.004132
-0.00561688
-0.00619439
-0.00572009
-0.00575051
-0.00673285
-0.00571854
-0.00789852
-0.00948763
-0.00475645
-0.00625023
-0.00729647
-0.00485667
-0.00862398
-0.0102923
-0.0107769
-0.0160862
-0.0211046
-0.031241
-0.0506334
-0.0729164
-0.0980103
-0.123505
-0.138094
-0.134193
-0.110673
-0.0759497
-0.0487365
-0.0369877
-0.026434
-0.00219057
0.0313101
0.0557566
0.0539562
0.0224204
0.0278673
0.0683393
0.0728277
0.0430026
0.00143986
-0.0248009
-0.0295466
-0.0344253
-0.0598687
-0.0984562
-0.128578
-0.138455
-0.128565
-0.106982
-0.0820098
-0.0565049
-0.0366391
-0.0262075
-0.0168787
-0.00984062
-0.00990425
-0.0074782
-0.00600923
-0.00918272
-0.00695144
-0.006907
-0.00789788
-0.00365983
-0.00500866
-0.00636435
-0.00505058
-0.00535822
-0.00545843
-0.00452939
-0.00486149
-0.0062381
-0.00519168
-0.00804782
-0.00656647
-0.00824252
-0.00764128
-0.00718046
-0.00765748
-0.00584711
-0.00683791
-0.00485373
-0.00576587