/*--------------------------------*- C++ -*----------------------------------*\
  =========                 |
  \\      /  F ield         | OpenFOAM: The Open Source CFD Toolbox
   \\    /   O peration     | Website:  https://openfoam.org
    \\  /    A nd           | Version:  10
     \\/     M anipulation  |
\*---------------------------------------------------------------------------*/
FoamFile
{
    format      ascii;
    class       volScalarField;
    location    "51";
    object      h_0;
}
// * * * * * * * * * * * * * * * * * * * * * * * * * * * * * * * * * * * * * //

dimensions      [0 1 0 0 0 0 0];

internalField   nonuniform List<scalar> 
10000
(
0.00252911
0.00646865
0.00795645
0.00748848
0.00670621
0.00690731
0.00811938
0.00936665
0.00950868
0.00796014
0.00496857
0.00138156
-0.00194426
-0.00467786
-0.00698843
-0.00901702
-0.0105511
-0.0113978
-0.011593
-0.011032
-0.00925312
-0.00594176
-0.00173307
0.00223665
0.00547487
0.00808388
0.0099287
0.0106129
0.0102038
0.00938841
0.00858459
0.00758701
0.00647093
0.00567772
0.00519264
0.00466819
0.00404671
0.00340166
0.0026162
0.00149821
5.03999e-05
-0.00156537
-0.00330458
-0.00518999
-0.00705313
-0.00869927
-0.0101221
-0.0113001
-0.0120964
-0.0124617
-0.0124613
-0.0120951
-0.011298
-0.0101196
-0.00869657
-0.00705047
-0.00518758
-0.00330259
-0.00156388
5.13988e-05
0.00149879
0.00261645
0.0034017
0.00404665
0.00466809
0.00519253
0.00567757
0.00647072
0.0075867
0.0085841
0.00938771
0.0102029
0.010612
0.00992768
0.00808287
0.00547399
0.002236
-0.00173351
-0.00594203
-0.00925318
-0.0110318
-0.0115927
-0.0113976
-0.0105509
-0.00901694
-0.0069885
-0.00467809
-0.00194459
0.00138128
0.00496849
0.00796029
0.00950903
0.00936714
0.00811994
0.00690791
0.00670689
0.0074893
0.00795737
0.00646945
0.00252944
0.00646865
0.0161962
0.0189346
0.0162478
0.0130494
0.0132378
0.0169597
0.0213504
0.0229956
0.0200767
0.0131865
0.00466617
-0.00313737
-0.00942396
-0.0148208
-0.0198551
-0.0239913
-0.0266822
-0.0279563
-0.0273722
-0.0234414
-0.0151218
-0.0041081
0.00644424
0.0151567
0.0223189
0.0275044
0.0295366
0.0285463
0.0263975
0.0242062
0.0213522
0.0180217
0.01546
0.0136676
0.011711
0.00948897
0.00725308
0.0047006
0.00130791
-0.00292079
-0.00756892
-0.0125434
-0.0179318
-0.023287
-0.028069
-0.0322415
-0.035721
-0.038096
-0.0391989
-0.0391977
-0.0380924
-0.0357156
-0.0322348
-0.0280616
-0.0232797
-0.0179251
-0.0125378
-0.00756457
-0.00291776
0.00130976
0.00470151
0.00725331
0.00948878
0.0117106
0.013667
0.0154592
0.0180206
0.0213509
0.0242045
0.0263954
0.0285439
0.0295341
0.0275018
0.0223164
0.0151546
0.0064427
-0.00410913
-0.0151224
-0.0234414
-0.0273717
-0.0279555
-0.0266814
-0.0239907
-0.0198547
-0.0148208
-0.00942439
-0.00313806
0.00466562
0.0131864
0.0200772
0.0229965
0.0213515
0.0169608
0.0132388
0.0130507
0.0162495
0.0189368
0.0161981
0.00646945
0.00795645
0.0189346
0.0192706
0.0117014
0.00428944
0.00348078
0.00969474
0.0183842
0.0239409
0.023219
0.0168552
0.00823438
0.000686255
-0.00493339
-0.00995174
-0.0155135
-0.0210168
-0.0256601
-0.0293063
-0.0309013
-0.0277475
-0.0179186
-0.00369647
0.0103615
0.0222487
0.0324004
0.0400651
0.0433635
0.0423701
0.0396481
0.0366646
0.0324046
0.0270808
0.0225207
0.0188065
0.0146748
0.0101392
0.0056922
0.000955667
-0.00478259
-0.0115133
-0.0187256
-0.0263586
-0.03459
-0.0428358
-0.0503268
-0.0569556
-0.0625387
-0.0664062
-0.0682371
-0.0682355
-0.0664014
-0.0625314
-0.0569464
-0.0503166
-0.0428253
-0.0345803
-0.0263501
-0.0187187
-0.0115082
-0.00477913
0.000957619
0.0056929
0.0101389
0.0146738
0.0188049
0.0225185
0.0270783
0.0324017
0.0366614
0.0396446
0.0423665
0.0433602
0.0400619
0.0323975
0.0222465
0.01036
-0.00369743
-0.0179191
-0.0277475
-0.0309006
-0.0293051
-0.0256588
-0.0210157
-0.0155125
-0.00995126
-0.00493351
0.000685735
0.00823401
0.0168553
0.0232198
0.023942
0.018385
0.0096952
0.00348094
0.00428982
0.0117027
0.0192727
0.0189368
0.00795739
0.00748848
0.0162478
0.0117014
-0.00232391
-0.0150338
-0.01768
-0.00941024
0.00388521
0.0146389
0.0184064
0.0156518
0.0104091
0.00655163
0.00470481
0.00275821
-0.00117841
-0.00671594
-0.0129583
-0.019478
-0.0244087
-0.0238536
-0.0150775
-0.000539906
0.0144891
0.0276354
0.0393642
0.0486031
0.0530152
0.0526124
0.0501444
0.0470733
0.0421236
0.0354598
0.0291425
0.0233368
0.0167164
0.0095253
0.00249158
-0.00473654
-0.0128618
-0.0218283
-0.0311845
-0.0409384
-0.0513203
-0.0617525
-0.0713844
-0.0799966
-0.0872897
-0.0924103
-0.094884
-0.0948824
-0.0924055
-0.0872822
-0.0799869
-0.0713734
-0.0617409
-0.051309
-0.040928
-0.0311755
-0.0218211
-0.0128564
-0.00473314
0.00249314
0.00952519
0.0167149
0.0233342
0.0291389
0.0354557
0.0421192
0.0470689
0.0501401
0.0526086
0.0530121
0.0486006
0.0393623
0.027634
0.0144883
-0.000540428
-0.0150779
-0.0238537
-0.0244082
-0.0194769
-0.012957
-0.00671456
-0.00117711
0.00275915
0.00470511
0.00655145
0.010409
0.0156522
0.0184072
0.0146395
0.00388515
-0.00941127
-0.0176817
-0.0150353
-0.00232413
0.0117027
0.0162496
0.00748932
0.00670621
0.0130494
0.00428944
-0.0150338
-0.0321921
-0.0366547
-0.0270467
-0.0101747
0.0048439
0.0124705
0.0129662
0.0108302
0.010308
0.0118479
0.0128212
0.0107554
0.00567605
-0.00157941
-0.0102472
-0.0176654
-0.0190829
-0.0113994
0.00287873
0.0182795
0.0321742
0.0448177
0.0548682
0.0599628
0.0602548
0.0583635
0.0555707
0.050634
0.043665
0.0365568
0.0294524
0.0211209
0.0119899
0.00286603
-0.00655874
-0.0167917
-0.0276564
-0.0388348
-0.0503437
-0.0623232
-0.0742736
-0.0853919
-0.0953277
-0.103697
-0.109614
-0.112521
-0.112519
-0.10961
-0.10369
-0.0953194
-0.085382
-0.0742626
-0.0623118
-0.0503326
-0.0388245
-0.0276475
-0.0167846
-0.00655383
0.00286869
0.0119904
0.0211194
0.0294493
0.0365526
0.0436602
0.0506292
0.0555662
0.0583597
0.0602518
0.0599609
0.054867
0.044817
0.0321739
0.0182793
0.00287839
-0.0114
-0.0190836
-0.0176657
-0.0102469
-0.00157858
0.00567718
0.0107566
0.0128221
0.0118482
0.0103078
0.01083
0.0129665
0.012471
0.00484405
-0.0101756
-0.027049
-0.0366579
-0.0321951
-0.0150353
0.00428983
0.0130507
0.00670691
0.00690731
0.0132378
0.00348078
-0.01768
-0.0366547
-0.0418661
-0.0314122
-0.0125395
0.00459655
0.0136352
0.0146895
0.0126392
0.0121037
0.0136749
0.0147241
0.0126055
0.0070033
-0.00136255
-0.0113342
-0.0195625
-0.02096
-0.0127349
0.00241132
0.0190571
0.034286
0.0477927
0.058005
0.06301
0.0634418
0.0617102
0.0589295
0.0543175
0.0480613
0.0415572
0.0347305
0.0264773
0.017208
0.00752385
-0.00293902
-0.0143984
-0.0264985
-0.0390455
-0.0519371
-0.065016
-0.0778373
-0.0897236
-0.100196
-0.108847
-0.114949
-0.117985
-0.117985
-0.114947
-0.108843
-0.10019
-0.089716
-0.0778283
-0.0650061
-0.0519268
-0.0390353
-0.0264892
-0.0143905
-0.00293308
0.00752758
0.0172094
0.0264767
0.0347282
0.0415538
0.0480574
0.0543137
0.0589262
0.0617077
0.0634401
0.0630092
0.0580048
0.0477927
0.0342859
0.0190567
0.00241044
-0.0127363
-0.0209617
-0.0195638
-0.0113348
-0.00136242
0.00700392
0.0126062
0.0147247
0.0136748
0.0121031
0.0126386
0.0146895
0.0136356
0.00459655
-0.0125407
-0.0314148
-0.0418696
-0.0366579
-0.0176817
0.00348096
0.0132389
0.00690793
0.00811938
0.0169597
0.00969474
-0.00941024
-0.0270467
-0.0314122
-0.0201022
-0.00029611
0.0173562
0.0258993
0.0252428
0.0204378
0.0164225
0.0142552
0.0118359
0.00682982
-0.00129439
-0.0118945
-0.0232766
-0.0314686
-0.0314857
-0.0214298
-0.0043727
0.0144626
0.0317732
0.046276
0.0561205
0.0601823
0.0598353
0.0573104
0.0536619
0.0489956
0.043791
0.0387771
0.0335215
0.0270627
0.019566
0.01113
0.00118482
-0.0102205
-0.0225574
-0.0357281
-0.0494156
-0.0630078
-0.0760414
-0.0879941
-0.098273
-0.106491
-0.112221
-0.115105
-0.115104
-0.11222
-0.106488
-0.0982696
-0.0879894
-0.0760353
-0.0630006
-0.0494075
-0.0357196
-0.0225491
-0.0102131
0.00119097
0.0111345
0.0195687
0.0270639
0.0335213
0.038776
0.0437893
0.0489939
0.0536603
0.0573092
0.0598344
0.0601818
0.0561202
0.0462754
0.0317722
0.0144611
-0.00437467
-0.0214323
-0.0314883
-0.0314708
-0.023278
-0.0118949
-0.00129416
0.0068302
0.011836
0.0142547
0.0164216
0.020437
0.0252427
0.0258998
0.0173566
-0.000296642
-0.020104
-0.0314149
-0.027049
-0.00941128
0.00969521
0.0169608
0.00811997
0.00936665
0.0213504
0.0183842
0.00388521
-0.0101747
-0.0125395
-0.00029611
0.0200112
0.0378329
0.0457979
0.0433954
0.035426
0.0268794
0.0193905
0.0117012
0.00210573
-0.0100725
-0.0242238
-0.0379557
-0.0466596
-0.0456472
-0.0341438
-0.0155593
0.00529258
0.024705
0.0401072
0.0492657
0.0519081
0.050148
0.0460202
0.0405535
0.034959
0.0302052
0.0263825
0.0227259
0.0185073
0.0135477
0.00731481
-0.00103311
-0.01128
-0.022812
-0.0356348
-0.0492472
-0.0625899
-0.0751432
-0.0865492
-0.0961244
-0.103493
-0.108554
-0.111139
-0.111139
-0.108553
-0.103492
-0.0961235
-0.0865475
-0.0751407
-0.0625864
-0.0492427
-0.0356296
-0.0228063
-0.0112742
-0.00102753
0.00731989
0.013552
0.0185108
0.0227285
0.0263844
0.0302063
0.0349594
0.0405535
0.0460198
0.0501471
0.0519069
0.0492643
0.0401054
0.0247027
0.00528986
-0.0155622
-0.034147
-0.0456503
-0.0466622
-0.0379572
-0.0242242
-0.0100722
0.00210603
0.0117012
0.01939
0.0268786
0.0354255
0.0433956
0.045799
0.0378341
0.0200117
-0.000296651
-0.0125407
-0.0101757
0.00388514
0.018385
0.0213516
0.00936717
0.00950868
0.0229956
0.0239409
0.0146389
0.0048439
0.00459655
0.0173562
0.0378329
0.0562146
0.0648943
0.0626384
0.0534443
0.041951
0.0302937
0.0181299
0.00443702
-0.0116772
-0.0296926
-0.04646
-0.0567054
-0.0560288
-0.0446687
-0.0261337
-0.00451717
0.0162426
0.0322424
0.0407949
0.0423033
0.0393591
0.0336435
0.026026
0.018732
0.013291
0.00930137
0.00583228
0.00257466
-0.000874233
-0.00552593
-0.0123813
-0.0211522
-0.0312581
-0.0428437
-0.0553886
-0.067597
-0.0789453
-0.0892639
-0.0978272
-0.104223
-0.108577
-0.11086
-0.110861
-0.108577
-0.104224
-0.0978285
-0.0892652
-0.0789464
-0.0675975
-0.0553884
-0.0428425
-0.0312557
-0.0211487
-0.0123767
-0.00552055
-0.000868447
0.00258049
0.00583776
0.00930605
0.0132945
0.0187343
0.0260271
0.0336434
0.0393579
0.0423014
0.0407926
0.0322397
0.0162395
-0.00452039
-0.0261369
-0.0446718
-0.0560318
-0.0567078
-0.0464613
-0.0296928
-0.0116766
0.00443757
0.0181302
0.0302935
0.0419507
0.0534442
0.062639
0.0648957
0.0562162
0.0378341
0.0173566
0.00459653
0.00484403
0.0146395
0.023942
0.0229966
0.00950905
0.00796014
0.0200767
0.023219
0.0184064
0.0124705
0.0136352
0.0258993
0.0457979
0.0648943
0.0755882
0.0756378
0.0677028
0.0556969
0.0421321
0.0275898
0.0116828
-0.00679638
-0.0275481
-0.0468099
-0.0587853
-0.0593844
-0.049582
-0.0326365
-0.0116023
0.00961754
0.0260068
0.0344778
0.0358507
0.0328091
0.0264857
0.0174116
0.00845239
0.00153862
-0.00407647
-0.00923903
-0.0136464
-0.0176801
-0.0224822
-0.0289246
-0.0366705
-0.0452563
-0.0549795
-0.065507
-0.0756325
-0.0849541
-0.0935334
-0.100697
-0.105974
-0.109586
-0.111559
-0.11156
-0.109587
-0.105977
-0.1007
-0.0935374
-0.0849585
-0.0756367
-0.0655106
-0.0549818
-0.0452569
-0.0366691
-0.0289212
-0.0224769
-0.0176735
-0.0136392
-0.00923178
-0.00406997
0.00154379
0.00845594
0.0174135
0.0264861
0.0328082
0.0358489
0.0344757
0.0260045
0.00961494
-0.0116049
-0.032639
-0.0495844
-0.0593867
-0.0587871
-0.0468107
-0.0275479
-0.00679549
0.0116838
0.0275905
0.0421325
0.0556971
0.0677032
0.0756387
0.0755896
0.0648957
0.045799
0.0258998
0.0136356
0.012471
0.0184072
0.0232198
0.0200772
0.0079603
0.00496857
0.0131865
0.0168552
0.0156518
0.0129662
0.0146895
0.0252428
0.0433954
0.0626384
0.0756378
0.0789285
0.073431
0.0621064
0.0478323
0.0322277
0.0155328
-0.00376923
-0.0256792
-0.0460815
-0.05892
-0.0605237
-0.0523339
-0.0371437
-0.0169032
0.00469625
0.0219145
0.0314478
0.0342893
0.0328638
0.0276525
0.0187773
0.00925525
0.00112526
-0.00657928
-0.0144164
-0.0214313
-0.0277826
-0.0343614
-0.0415767
-0.0490093
-0.0563397
-0.0639446
-0.0717872
-0.0790285
-0.0855077
-0.0915425
-0.0966478
-0.100359
-0.102935
-0.10443
-0.104431
-0.102937
-0.100363
-0.096653
-0.0915487
-0.0855144
-0.0790351
-0.071793
-0.0639491
-0.0563422
-0.0490095
-0.0415745
-0.0343569
-0.0277763
-0.021424
-0.0144089
-0.00657224
0.00113118
0.00925966
0.0187802
0.0276539
0.032864
0.0342888
0.031447
0.0219134
0.00469481
-0.0169049
-0.0371454
-0.0523357
-0.0605256
-0.0589216
-0.0460821
-0.0256787
-0.0037681
0.015534
0.0322288
0.0478332
0.0621071
0.0734317
0.0789293
0.0756387
0.062639
0.0433956
0.0252427
0.0146895
0.0129665
0.0156522
0.0168553
0.0131865
0.00496849
0.00138156
0.00466617
0.00823438
0.0104091
0.0108302
0.0126392
0.0204378
0.035426
0.0534443
0.0677028
0.073431
0.0695704
0.0580576
0.0422556
0.0250493
0.00742729
-0.0122262
-0.0341502
-0.0541536
-0.0662419
-0.0673759
-0.059292
-0.0443017
-0.0235082
-0.00041187
0.018861
0.0309706
0.0368812
0.0385376
0.0358499
0.0287146
0.0199594
0.0114714
0.00218874
-0.00805918
-0.0177968
-0.0269224
-0.0358675
-0.0443876
-0.0519527
-0.0583796
-0.0639682
-0.0689214
-0.0728808
-0.0759615
-0.0787069
-0.080957
-0.0824044
-0.0833986
-0.0840937
-0.0840947
-0.0834017
-0.0824093
-0.0809633
-0.078714
-0.075969
-0.072888
-0.0689279
-0.0639733
-0.0583829
-0.0519539
-0.0443867
-0.0358645
-0.0269177
-0.0177909
-0.00805269
0.00219528
0.0114775
0.0199646
0.0287188
0.035853
0.0385398
0.0368826
0.0309714
0.0188612
-0.000412238
-0.0235092
-0.0443031
-0.0592937
-0.0673778
-0.0662436
-0.0541543
-0.0341499
-0.0122252
0.0074285
0.0250505
0.0422569
0.0580588
0.0695714
0.0734317
0.0677032
0.0534442
0.0354255
0.020437
0.0126386
0.01083
0.010409
0.00823401
0.00466562
0.00138127
-0.00194426
-0.00313737
0.000686255
0.00655163
0.010308
0.0121037
0.0164225
0.0268794
0.041951
0.0556969
0.0621064
0.0580576
0.0444649
0.0252989
0.00490812
-0.0147938
-0.0352062
-0.0566383
-0.0750477
-0.0848306
-0.0837962
-0.0738126
-0.0567529
-0.0333387
-0.0071153
0.015571
0.0314526
0.041291
0.0463963
0.0463495
0.0412689
0.0337148
0.0252947
0.0150508
0.00326436
-0.00830382
-0.0194501
-0.0302088
-0.0397137
-0.04735
-0.0530818
-0.0569765
-0.0592982
-0.0601152
-0.0597646
-0.0589286
-0.0578532
-0.0565376
-0.0555188
-0.0551432
-0.0551442
-0.0555219
-0.0565424
-0.0578592
-0.0589353
-0.0597714
-0.0601217
-0.059304
-0.0569813
-0.0530854
-0.0473522
-0.0397144
-0.0302081
-0.0194478
-0.00830028
0.00326893
0.0150563
0.0253006
0.0337207
0.0412745
0.0463547
0.0464007
0.0412944
0.031455
0.0155723
-0.00711507
-0.0333396
-0.0567547
-0.0738149
-0.0837987
-0.0848328
-0.0750491
-0.0566388
-0.0352059
-0.0147931
0.00490908
0.0253001
0.0444663
0.0580588
0.0621071
0.0556971
0.0419507
0.0268786
0.0164216
0.0121031
0.0103078
0.00655145
0.000685727
-0.00313808
-0.00194461
-0.00467786
-0.00942396
-0.00493339
0.00470481
0.0118479
0.0136749
0.0142552
0.0193905
0.0302937
0.0421321
0.0478323
0.0422556
0.0252989
0.001584
-0.0230361
-0.0456425
-0.0671702
-0.0878605
-0.104002
-0.110657
-0.10655
-0.0934456
-0.0728077
-0.0454692
-0.0152979
0.0112375
0.0309916
0.0443546
0.0518658
0.0530606
0.0487633
0.0413966
0.0323766
0.0211516
0.00848256
-0.00384435
-0.015752
-0.0271114
-0.0366559
-0.0437948
-0.0486986
-0.0511319
-0.0512445
-0.0494186
-0.0461335
-0.0421079
-0.0379771
-0.0340865
-0.0311631
-0.0297525
-0.0297533
-0.0311653
-0.0340898
-0.0379814
-0.0421127
-0.0461386
-0.0494236
-0.0512493
-0.0511363
-0.0487025
-0.0437981
-0.0366585
-0.0271132
-0.0157525
-0.0038435
0.00848491
0.0211556
0.0323819
0.0414029
0.0487699
0.0530672
0.0518718
0.0443594
0.0309951
0.0112396
-0.0152973
-0.04547
-0.0728097
-0.0934483
-0.106553
-0.110659
-0.104004
-0.0878617
-0.0671707
-0.0456425
-0.0230358
0.00158486
0.0253001
0.0422569
0.0478332
0.0421325
0.0302935
0.01939
0.0142547
0.0136748
0.0118482
0.00470511
-0.00493353
-0.00942442
-0.00467811
-0.00698843
-0.0148208
-0.00995174
0.00275821
0.0128212
0.0147241
0.0118359
0.0117012
0.0181299
0.0275898
0.0322277
0.0250493
0.00490812
-0.0230361
-0.0516126
-0.0769335
-0.0992968
-0.118785
-0.132186
-0.135532
-0.128474
-0.112427
-0.0883507
-0.0574354
-0.0240022
0.00546657
0.0279716
0.0434084
0.0514342
0.0517614
0.0462533
0.0373942
0.0265684
0.0138821
0.000575919
-0.0116867
-0.0231005
-0.0336472
-0.0419674
-0.0476395
-0.0511184
-0.0519334
-0.0500679
-0.046152
-0.0407486
-0.0345262
-0.0283905
-0.022914
-0.0188555
-0.0168261
-0.0168263
-0.0188561
-0.022915
-0.0283922
-0.0345284
-0.0407515
-0.0461554
-0.0500717
-0.0519377
-0.0511229
-0.0476442
-0.0419719
-0.0336512
-0.0231036
-0.0116883
0.000576041
0.0138842
0.0265725
0.0373998
0.0462598
0.0517683
0.0514408
0.0434139
0.0279758
0.00546929
-0.024001
-0.0574359
-0.0883525
-0.112429
-0.128477
-0.135535
-0.132189
-0.118787
-0.099298
-0.0769342
-0.0516128
-0.0230358
0.00490909
0.0250505
0.0322288
0.0275905
0.0181302
0.0117012
0.011836
0.0147247
0.0128222
0.00275915
-0.00995128
-0.0148208
-0.00698851
-0.00901702
-0.0198551
-0.0155135
-0.00117841
0.0107554
0.0126055
0.00682982
0.00210573
0.00443702
0.0116828
0.0155328
0.00742729
-0.0147938
-0.0456425
-0.0769335
-0.103916
-0.126176
-0.143623
-0.153707
-0.15374
-0.144239
-0.126057
-0.0995241
-0.0662374
-0.0310112
-0.000157796
0.0235699
0.0395742
0.0465931
0.0446262
0.0366151
0.0251875
0.0117845
-0.00270983
-0.0165851
-0.0283492
-0.038464
-0.0471657
-0.0532336
-0.0565478
-0.0579166
-0.0568277
-0.0531859
-0.0478612
-0.0414393
-0.0344493
-0.0278717
-0.0222854
-0.0182364
-0.0162088
-0.0162085
-0.0182355
-0.0222842
-0.0278707
-0.0344489
-0.0414398
-0.047863
-0.0531889
-0.0568318
-0.0579216
-0.0565534
-0.0532394
-0.0471712
-0.0384687
-0.0283527
-0.0165868
-0.00270963
0.0117867
0.0251914
0.0366202
0.0446322
0.0465994
0.0395799
0.0235746
-0.000154234
-0.031009
-0.066237
-0.0995251
-0.126059
-0.144241
-0.153742
-0.153709
-0.143625
-0.126178
-0.103917
-0.0769342
-0.0456425
-0.0147931
0.00742851
0.015534
0.0116838
0.00443756
0.00210602
0.0068302
0.0126063
0.0107567
-0.00117711
-0.0155126
-0.0198547
-0.00901695
-0.0105511
-0.0239913
-0.0210168
-0.00671594
0.00567605
0.0070033
-0.00129439
-0.0100725
-0.0116772
-0.00679638
-0.00376923
-0.0122262
-0.0352062
-0.0671702
-0.0992968
-0.126176
-0.146679
-0.160551
-0.166089
-0.162182
-0.150167
-0.130288
-0.102212
-0.0678807
-0.0325215
-0.00196281
0.0214445
0.0367083
0.0417962
0.0370599
0.0263005
0.0122069
-0.00373408
-0.0199209
-0.0342627
-0.0454744
-0.0541133
-0.0605954
-0.0639557
-0.0644954
-0.0634127
-0.0603884
-0.055414
-0.049593
-0.043424
-0.0371612
-0.0316369
-0.0272452
-0.0241495
-0.0226058
-0.0226053
-0.0241479
-0.0272428
-0.0316343
-0.0371589
-0.0434226
-0.049593
-0.0554157
-0.0603918
-0.0634175
-0.0645012
-0.0639619
-0.0606014
-0.0541188
-0.0454789
-0.0342659
-0.0199225
-0.00373409
0.0122086
0.0263037
0.0370645
0.0418017
0.036714
0.0214498
-0.00195817
-0.032518
-0.0678789
-0.102212
-0.130289
-0.150169
-0.162184
-0.166091
-0.160554
-0.146681
-0.126178
-0.099298
-0.0671707
-0.0352059
-0.0122252
-0.00376809
-0.00679549
-0.0116767
-0.0100723
-0.00129415
0.00700394
0.0056772
-0.00671456
-0.0210157
-0.0239907
-0.0105509
-0.0113978
-0.0266822
-0.0256601
-0.0129583
-0.00157941
-0.00136255
-0.0118945
-0.0242238
-0.0296926
-0.0275481
-0.0256792
-0.0341502
-0.0566383
-0.0878605
-0.118785
-0.143623
-0.160551
-0.169137
-0.168689
-0.159883
-0.144891
-0.123456
-0.0946136
-0.0604906
-0.026572
0.00209868
0.0236876
0.0369748
0.0395097
0.0320348
0.0189071
0.00273896
-0.0150552
-0.0323953
-0.0469681
-0.0577416
-0.065153
-0.0696143
-0.0704724
-0.0685031
-0.0652523
-0.0607619
-0.0552499
-0.0499862
-0.0452348
-0.0408139
-0.0372395
-0.0346632
-0.03287
-0.0319377
-0.0319372
-0.0328685
-0.0346609
-0.0372366
-0.0408109
-0.0452323
-0.0499847
-0.0552501
-0.0607638
-0.0652558
-0.0685079
-0.070478
-0.0696201
-0.0651585
-0.0577466
-0.0469724
-0.0323986
-0.0150573
0.00273844
0.0189083
0.0320377
0.0395143
0.0369804
0.0236936
0.00210445
-0.0265671
-0.0604873
-0.0946121
-0.123455
-0.144892
-0.159885
-0.168692
-0.16914
-0.160554
-0.143625
-0.118787
-0.0878618
-0.0566388
-0.0341499
-0.0256787
-0.0275479
-0.0296928
-0.0242242
-0.0118949
-0.0013624
-0.00157857
-0.012957
-0.0256589
-0.0266814
-0.0113976
-0.011593
-0.0279563
-0.0293063
-0.019478
-0.0102472
-0.0113342
-0.0232766
-0.0379557
-0.04646
-0.0468099
-0.0460815
-0.0541536
-0.0750477
-0.104002
-0.132186
-0.153707
-0.166089
-0.168689
-0.161946
-0.148317
-0.13074
-0.108536
-0.0801359
-0.0477337
-0.0168867
0.00836791
0.0267583
0.0369847
0.0365854
0.0266938
0.0119285
-0.00531522
-0.0238351
-0.0412759
-0.0552766
-0.0652206
-0.0713787
-0.0740121
-0.0728132
-0.0689827
-0.0642688
-0.0590645
-0.0538005
-0.0497747
-0.0469477
-0.0446461
-0.0430416
-0.0421348
-0.0414479
-0.0409724
-0.0409721
-0.041447
-0.0421332
-0.0430394
-0.0446435
-0.046945
-0.0497724
-0.0537992
-0.0590646
-0.0642703
-0.0689856
-0.0728173
-0.074017
-0.071384
-0.0652259
-0.0552818
-0.0412805
-0.0238387
-0.00531752
0.011928
0.0266952
0.0365888
0.0369897
0.0267643
0.00837428
-0.0168807
-0.047729
-0.0801329
-0.108534
-0.13074
-0.148318
-0.161948
-0.168692
-0.166091
-0.153709
-0.132189
-0.104004
-0.0750491
-0.0541543
-0.046082
-0.0468107
-0.0464613
-0.0379572
-0.0232779
-0.0113348
-0.0102469
-0.019477
-0.0293051
-0.0279555
-0.0115927
-0.011032
-0.0273722
-0.0309013
-0.0244087
-0.0176654
-0.0195625
-0.0314686
-0.0466596
-0.0567054
-0.0587853
-0.05892
-0.0662419
-0.0848306
-0.110657
-0.135532
-0.15374
-0.162182
-0.159883
-0.148317
-0.131498
-0.112975
-0.091727
-0.0655992
-0.0367259
-0.010404
0.0104783
0.0250897
0.0320212
0.0290282
0.0175656
0.00226785
-0.0147463
-0.0325314
-0.0485299
-0.0605298
-0.0685591
-0.072846
-0.0735036
-0.0706559
-0.0657808
-0.0605461
-0.0554548
-0.0509292
-0.0481383
-0.0468564
-0.0460941
-0.0458206
-0.0460558
-0.0461497
-0.0459744
-0.0459742
-0.0461491
-0.0460549
-0.0458194
-0.0460926
-0.0468546
-0.0481362
-0.0509272
-0.0554532
-0.0605454
-0.0657814
-0.070658
-0.0735072
-0.0728508
-0.0685646
-0.0605356
-0.0485355
-0.0325363
-0.01475
0.00226573
0.0175653
0.0290299
0.0320248
0.0250947
0.0104841
-0.0103979
-0.0367205
-0.0655949
-0.0917239
-0.112973
-0.131497
-0.148318
-0.159885
-0.162184
-0.153742
-0.135535
-0.110659
-0.0848328
-0.0662436
-0.0589215
-0.0587871
-0.0567078
-0.0466621
-0.0314708
-0.0195637
-0.0176657
-0.0244082
-0.0309006
-0.0273717
-0.0110318
-0.00925312
-0.0234414
-0.0277475
-0.0238536
-0.0190829
-0.02096
-0.0314857
-0.0456472
-0.0560288
-0.0593844
-0.0605237
-0.0673759
-0.0837962
-0.10655
-0.128474
-0.144239
-0.150167
-0.144891
-0.13074
-0.112975
-0.0955346
-0.0770662
-0.0548345
-0.030749
-0.009485
0.00717688
0.018571
0.0230569
0.0186293
0.00691492
-0.00767549
-0.023303
-0.0392187
-0.0526311
-0.0615946
-0.0668843
-0.0688596
-0.0676624
-0.063938
-0.0591925
-0.0546612
-0.0506368
-0.0472242
-0.045332
-0.0448095
-0.0447126
-0.0450351
-0.0459639
-0.046698
-0.0468336
-0.0468334
-0.0466976
-0.0459634
-0.0450347
-0.0447121
-0.0448088
-0.0453308
-0.0472222
-0.0506343
-0.0546588
-0.0591909
-0.0639379
-0.0676642
-0.0688632
-0.0668893
-0.0616004
-0.0526371
-0.0392242
-0.0233076
-0.00767897
0.00691289
0.018629
0.0230584
0.0185741
0.00718126
-0.0094798
-0.0307435
-0.0548295
-0.077062
-0.0955314
-0.112973
-0.13074
-0.144892
-0.150169
-0.144241
-0.128477
-0.106553
-0.0837987
-0.0673778
-0.0605256
-0.0593867
-0.0560318
-0.0456503
-0.0314883
-0.0209617
-0.0190836
-0.0238537
-0.0277475
-0.0234414
-0.00925317
-0.00594176
-0.0151218
-0.0179186
-0.0150775
-0.0113994
-0.0127349
-0.0214298
-0.0341438
-0.0446687
-0.049582
-0.0523339
-0.059292
-0.0738126
-0.0934456
-0.112427
-0.126057
-0.130288
-0.123456
-0.108536
-0.091727
-0.0770662
-0.0628203
-0.0457277
-0.0273059
-0.0112912
0.00156627
0.0105647
0.0137008
0.00907193
-0.00168278
-0.0146072
-0.0281877
-0.0417921
-0.0523747
-0.0582978
-0.0610125
-0.0610892
-0.0588347
-0.0553519
-0.0518953
-0.0490604
-0.0468051
-0.0447549
-0.0434835
-0.0431307
-0.0430986
-0.0435209
-0.0447922
-0.046022
-0.0464715
-0.0464714
-0.0460218
-0.0447921
-0.0435209
-0.0430987
-0.0431306
-0.0434829
-0.0447534
-0.0468027
-0.0490575
-0.0518926
-0.0553501
-0.0588345
-0.061091
-0.0610161
-0.0583026
-0.0523803
-0.0417978
-0.0281929
-0.0146118
-0.00168642
0.00906966
0.0137001
0.0105657
0.00156885
-0.0112872
-0.027301
-0.0457224
-0.0628153
-0.0770619
-0.0917239
-0.108534
-0.123455
-0.130289
-0.126059
-0.112429
-0.0934483
-0.0738149
-0.0592937
-0.0523357
-0.0495844
-0.0446718
-0.034147
-0.0214323
-0.0127363
-0.0114
-0.0150779
-0.0179191
-0.0151224
-0.00594202
-0.00173307
-0.0041081
-0.00369647
-0.000539906
0.00287873
0.00241132
-0.0043727
-0.0155593
-0.0261337
-0.0326365
-0.0371437
-0.0443017
-0.0567529
-0.0728077
-0.0883507
-0.0995241
-0.102212
-0.0946136
-0.0801359
-0.0655992
-0.0548345
-0.0457277
-0.0346688
-0.022602
-0.0120554
-0.00282536
0.00423694
0.00663572
0.00246533
-0.00668323
-0.0175054
-0.0288779
-0.0402281
-0.0484312
-0.0522772
-0.0536661
-0.0531961
-0.0512139
-0.049042
-0.0474819
-0.0465289
-0.0460207
-0.0452924
-0.044599
-0.04436
-0.0443161
-0.0446046
-0.0457477
-0.0469777
-0.0474696
-0.0474697
-0.0469781
-0.0457482
-0.044605
-0.0443163
-0.04436
-0.0445985
-0.0452914
-0.0460191
-0.0465267
-0.0474794
-0.0490395
-0.0512121
-0.0531958
-0.0536675
-0.0522803
-0.0484357
-0.0402336
-0.0288836
-0.017511
-0.00668814
0.00246156
0.00663336
0.00423611
-0.00282455
-0.0120529
-0.0225979
-0.0346637
-0.0457224
-0.0548295
-0.0655949
-0.0801329
-0.0946121
-0.102212
-0.0995251
-0.0883525
-0.0728097
-0.0567547
-0.0443031
-0.0371454
-0.032639
-0.0261369
-0.0155622
-0.00437466
0.00241044
0.00287837
-0.000540435
-0.00369742
-0.00410912
-0.0017335
0.00223665
0.00644424
0.0103615
0.0144891
0.0182795
0.0190571
0.0144626
0.00529258
-0.00451717
-0.0116023
-0.0169032
-0.0235082
-0.0333387
-0.0454692
-0.0574354
-0.0662374
-0.0678807
-0.0604906
-0.0477337
-0.0367259
-0.030749
-0.0273059
-0.022602
-0.0168884
-0.0114437
-0.00530228
0.000427225
0.0026648
-0.000448998
-0.00733581
-0.0155239
-0.0243412
-0.0332941
-0.0395208
-0.0423693
-0.04385
-0.0442496
-0.043652
-0.0433015
-0.0434598
-0.0437138
-0.0442079
-0.0444515
-0.0444537
-0.044662
-0.0448782
-0.0449681
-0.0454461
-0.0459454
-0.0459994
-0.0459999
-0.0459465
-0.0454473
-0.0449689
-0.0448783
-0.0446616
-0.044453
-0.0444508
-0.0442073
-0.0437129
-0.0434583
-0.0432993
-0.0436495
-0.0442477
-0.0438493
-0.0423703
-0.0395239
-0.0332988
-0.0243468
-0.0155298
-0.00734151
-0.000453843
0.00266113
0.00042482
-0.00530323
-0.0114429
-0.0168858
-0.022598
-0.027301
-0.0307435
-0.0367205
-0.047729
-0.0604873
-0.0678789
-0.066237
-0.0574359
-0.04547
-0.0333396
-0.0235092
-0.0169048
-0.0116049
-0.00452036
0.00528988
0.0144611
0.0190567
0.0182793
0.0144883
0.01036
0.00644272
0.00223601
0.00547487
0.0151567
0.0222487
0.0276354
0.0321742
0.034286
0.0317732
0.024705
0.0162426
0.00961754
0.00469625
-0.00041187
-0.0071153
-0.0152979
-0.0240022
-0.0310112
-0.0325215
-0.026572
-0.0168867
-0.010404
-0.009485
-0.0112912
-0.0120554
-0.0114437
-0.00966969
-0.00519651
0.000543117
0.00382393
0.00289001
-0.000748539
-0.00561792
-0.0114929
-0.0179504
-0.0226146
-0.025349
-0.0279561
-0.0301337
-0.0314193
-0.0328248
-0.0342002
-0.0349304
-0.0357329
-0.0366438
-0.0374635
-0.0383891
-0.0390676
-0.0389998
-0.0386195
-0.0380531
-0.0374211
-0.0374216
-0.0380542
-0.0386208
-0.0390007
-0.0390678
-0.0383887
-0.0374628
-0.0366433
-0.0357327
-0.0349302
-0.0341996
-0.0328233
-0.0314171
-0.0301311
-0.0279539
-0.025348
-0.0226156
-0.0179534
-0.0114974
-0.00562341
-0.000754409
0.00288447
0.00381918
0.000539263
-0.00519921
-0.00967079
-0.0114429
-0.0120529
-0.0112872
-0.00947981
-0.0103979
-0.0168808
-0.0265671
-0.0325181
-0.031009
-0.024001
-0.0152973
-0.00711509
-0.000412249
0.00469482
0.00961496
0.0162395
0.0247027
0.0317722
0.0342859
0.0321739
0.027634
0.0222465
0.0151546
0.00547401
0.00808388
0.0223189
0.0324004
0.0393642
0.0448177
0.0477927
0.046276
0.0401072
0.0322424
0.0260068
0.0219145
0.018861
0.015571
0.0112375
0.00546657
-0.000157796
-0.00196281
0.00209868
0.00836791
0.0104783
0.00717688
0.00156627
-0.00282536
-0.00530228
-0.00519651
-0.000536568
0.00682223
0.0124622
0.0147621
0.0150215
0.0136012
0.0103028
0.00557598
0.00141919
-0.00224589
-0.00675351
-0.0110803
-0.0141411
-0.0169098
-0.0192217
-0.0203647
-0.0214403
-0.0229548
-0.0244753
-0.025885
-0.0267893
-0.0266129
-0.0257721
-0.0246423
-0.0236408
-0.0236409
-0.0246425
-0.0257724
-0.0266133
-0.0267898
-0.0258853
-0.0244752
-0.0229545
-0.02144
-0.0203644
-0.0192213
-0.0169091
-0.0141397
-0.0110781
-0.00675083
-0.00224351
0.00142034
0.00557535
0.0103003
0.0135971
0.0150162
0.0147565
0.0124568
0.00681735
-0.000540637
-0.0051992
-0.00530322
-0.00282454
0.00156886
0.00718126
0.0104841
0.00837429
0.00210445
-0.00195818
-0.000154237
0.00546929
0.0112396
0.0155723
0.0188612
0.0219134
0.0260045
0.0322397
0.0401054
0.0462754
0.0477927
0.044817
0.0393623
0.0323976
0.0223164
0.00808288
0.0099287
0.0275044
0.0400651
0.0486031
0.0548682
0.058005
0.0561205
0.0492657
0.0407949
0.0344778
0.0314478
0.0309706
0.0314526
0.0309916
0.0279716
0.0235699
0.0214445
0.0236876
0.0267583
0.0250897
0.018571
0.0105647
0.00423694
0.000427225
0.000543117
0.00682223
0.0169423
0.0258665
0.0320765
0.0364467
0.0381708
0.0366314
0.0324424
0.0275928
0.0222313
0.0156762
0.00957449
0.00542119
0.00189127
-0.00123065
-0.00311257
-0.00474706
-0.00675683
-0.00847107
-0.00965332
-0.0102087
-0.00994066
-0.00936556
-0.00867713
-0.00798012
-0.00797976
-0.0086762
-0.00936462
-0.00994044
-0.0102094
-0.0096543
-0.00847182
-0.00675708
-0.00474676
-0.00311189
-0.00123002
0.00189166
0.00542172
0.00957578
0.0156784
0.0222341
0.0275954
0.032444
0.0366313
0.0381686
0.0364428
0.0320714
0.0258611
0.0169369
0.00681735
0.000539257
0.000424823
0.00423611
0.0105657
0.0185741
0.0250947
0.0267643
0.0236936
0.0214498
0.0235746
0.0279758
0.030995
0.031455
0.0309714
0.031447
0.0344757
0.0407927
0.0492643
0.0561202
0.0580048
0.054867
0.0486006
0.0400619
0.0275018
0.00992769
0.0106129
0.0295366
0.0433635
0.0530152
0.0599628
0.06301
0.0601823
0.0519081
0.0423033
0.0358507
0.0342893
0.0368812
0.041291
0.0443546
0.0434084
0.0395742
0.0367083
0.0369748
0.0369847
0.0320212
0.0230569
0.0137008
0.00663572
0.0026648
0.00382393
0.0124622
0.0258665
0.0385166
0.048825
0.0570534
0.0613244
0.0607179
0.0562254
0.0502195
0.0433557
0.0355339
0.0286368
0.0242297
0.0205245
0.0168753
0.014289
0.0122402
0.0102658
0.00912715
0.00885417
0.00902698
0.0093384
0.00919418
0.00882976
0.00880161
0.0088021
0.00883103
0.0091956
0.00933916
0.00902675
0.0088532
0.00912593
0.0102649
0.0122401
0.0142897
0.0168761
0.0205251