/*--------------------------------*- C++ -*----------------------------------*\
  =========                 |
  \\      /  F ield         | OpenFOAM: The Open Source CFD Toolbox
   \\    /   O peration     | Website:  https://openfoam.org
    \\  /    A nd           | Version:  10
     \\/     M anipulation  |
\*---------------------------------------------------------------------------*/
FoamFile
{
    format      ascii;
    class       volScalarField;
    location    "64";
    object      h;
}
// * * * * * * * * * * * * * * * * * * * * * * * * * * * * * * * * * * * * * //

dimensions      [0 1 0 0 0 0 0];

internalField   nonuniform List<scalar> 
10000
(
-0.000201765
-0.000828086
-0.00189662
-0.00318915
-0.00431254
-0.00490655
-0.00466063
-0.00342248
-0.00135105
0.00106208
0.00335305
0.00540878
0.0073691
0.00919759
0.0105519
0.0111385
0.0108794
0.00972707
0.00762923
0.00486225
0.00207128
-0.000151762
-0.00166372
-0.00265371
-0.00329169
-0.00363682
-0.00375309
-0.00376777
-0.00381046
-0.00398579
-0.00429976
-0.00457293
-0.00450643
-0.00392296
-0.00288945
-0.00176185
-0.000912414
-0.000333528
0.00023686
0.000917818
0.00155183
0.00180269
0.00152601
0.00100778
0.000646506
0.000566359
0.000559584
0.000324103
-0.000159573
-0.000561922
-0.000561944
-0.000159634
0.000324024
0.00055952
0.00056635
0.000646574
0.00100791
0.00152614
0.00180277
0.00155182
0.000917748
0.000236791
-0.000333554
-0.000912393
-0.0017618
-0.00288939
-0.00392288
-0.00450632
-0.00457283
-0.00429971
-0.00398584
-0.0038106
-0.00376797
-0.00375331
-0.00363709
-0.00329209
-0.00265433
-0.00166454
-0.000152592
0.00207081
0.0048625
0.00763033
0.00972879
0.0108812
0.0111399
0.0105527
0.00919788
0.00736912
0.00540881
0.00335312
0.0010619
-0.00135183
-0.00342395
-0.00466249
-0.00490824
-0.00431352
-0.00318921
-0.00189598
-0.000827309
-0.000201426
-0.000828086
-0.00302746
-0.00625194
-0.00984578
-0.0127818
-0.0141957
-0.0133268
-0.00974467
-0.00379417
0.003261
0.0101652
0.0165366
0.0226033
0.0280679
0.0318611
0.0332183
0.0321019
0.0285353
0.0224043
0.0144176
0.00630813
-0.000288687
-0.0049341
-0.008078
-0.0101162
-0.0111869
-0.0115192
-0.0115608
-0.0117455
-0.0123783
-0.0134289
-0.0143171
-0.0141382
-0.012373
-0.00924128
-0.00580786
-0.00317217
-0.00132393
0.000485483
0.0025832
0.00448934
0.00522384
0.00439352
0.00286743
0.00182849
0.00163048
0.00163773
0.000946377
-0.000495319
-0.00169775
-0.00169774
-0.000495315
0.000946337
0.00163765
0.00163043
0.00182856
0.00286765
0.0043938
0.00522404
0.00448935
0.00258306
0.000485308
-0.00132402
-0.00317215
-0.00580776
-0.00924115
-0.0123728
-0.0141379
-0.0143168
-0.0134288
-0.0123784
-0.0117459
-0.0115615
-0.0115201
-0.011188
-0.0101177
-0.00807993
-0.00493635
-0.00029074
0.00630713
0.0144185
0.0224073
0.0285399
0.0321069
0.0332226
0.031864
0.0280693
0.0226038
0.0165368
0.0101651
0.00326013
-0.00379658
-0.00974877
-0.0133319
-0.0142003
-0.0127846
-0.00984633
-0.00625069
-0.00302574
-0.000827311
-0.00189662
-0.00625194
-0.0114997
-0.0165728
-0.0202008
-0.0215439
-0.0198003
-0.0143244
-0.00533536
0.00563504
0.0168734
0.0276605
0.0379215
0.0467377
0.0522836
0.0536039
0.0511061
0.0452015
0.0357707
0.023654
0.0111838
0.000684263
-0.00712483
-0.0127145
-0.0164539
-0.018439
-0.0190836
-0.0192391
-0.0197184
-0.0210225
-0.0230139
-0.0246521
-0.0244257
-0.021493
-0.0162548
-0.0104651
-0.00590718
-0.00260973
0.000567941
0.00410766
0.00721873
0.00836579
0.00699557
0.00455222
0.00293849
0.00268187
0.00270456
0.00153521
-0.000875831
-0.00287923
-0.0028791
-0.000875548
0.00153545
0.00270461
0.00268177
0.00293841
0.00455232
0.00699585
0.00836608
0.00721884
0.00410756
0.000567748
-0.00260986
-0.00590719
-0.0104651
-0.0162547
-0.0214928
-0.0244254
-0.0246518
-0.0230137
-0.0210227
-0.019719
-0.0192403
-0.0190853
-0.0184414
-0.0164568
-0.0127177
-0.00712796
0.000681925
0.0111831
0.0236557
0.0357749
0.0452077
0.051113
0.0536105
0.0522889
0.0467413
0.0379234
0.027661
0.0168727
0.00563279
-0.00533957
-0.0143305
-0.0198072
-0.0215502
-0.0202052
-0.0165746
-0.0114994
-0.00625069
-0.00189599
-0.00318915
-0.00984578
-0.0165728
-0.0219898
-0.0250232
-0.025383
-0.0226187
-0.0159325
-0.0051306
0.00847025
0.0230375
0.0375091
0.051264
0.0626118
0.0691104
0.0698918
0.0660459
0.0585041
0.0471186
0.0325654
0.0172974
0.00393977
-0.00659754
-0.0146614
-0.0204038
-0.0237222
-0.0251003
-0.0257226
-0.0267758
-0.028966
-0.0320451
-0.0345277
-0.0343394
-0.0303351
-0.0231075
-0.015051
-0.00856158
-0.00375706
0.000787022
0.00567102
0.00983822
0.0113161
0.00947117
0.00625205
0.00415695
0.00382359
0.00375964
0.00201592
-0.00139976
-0.00420243
-0.00420221
-0.00139926
0.00201636
0.00375977
0.00382343
0.00415675
0.00625208
0.00947148
0.0113165
0.00983841
0.00567094
0.000786827
-0.00375718
-0.00856157
-0.0150509
-0.0231075
-0.0303349
-0.0343391
-0.0345273
-0.0320447
-0.028966
-0.0267765
-0.0257241
-0.0251029
-0.0237259
-0.020408
-0.0146656
-0.00660093
0.00393788
0.0172976
0.0325679
0.0471233
0.0585107
0.0660536
0.0699
0.0691181
0.0626179
0.0512676
0.03751
0.0230357
0.00846617
-0.00513657
-0.0159397
-0.0226261
-0.0253897
-0.0250285
-0.0219934
-0.0165746
-0.00984633
-0.00318921
-0.00431254
-0.0127818
-0.0202008
-0.0250232
-0.0266153
-0.0254312
-0.0215235
-0.0140176
-0.00227406
0.0127603
0.0292802
0.0459605
0.0617263
0.0743572
0.0811206
0.0813544
0.0766858
0.0683839
0.0562149
0.0406116
0.0239455
0.00890317
-0.00356094
-0.0137304
-0.0215647
-0.0266922
-0.0294697
-0.0311763
-0.0332345
-0.0365251
-0.0407291
-0.0440148
-0.0438626
-0.0388738
-0.0298301
-0.0196668
-0.0112682
-0.00487269
0.00110381
0.00732392
0.0124945
0.0143135
0.0121303
0.00830097
0.00578619
0.00530084
0.00501779
0.00263349
-0.00174747
-0.00528559
-0.00528534
-0.00174692
0.00263397
0.0050179
0.00530062
0.00578598
0.00830108
0.0121308
0.0143141
0.0124947
0.00732378
0.00110352
-0.00487285
-0.0112681
-0.0196667
-0.02983
-0.0388737
-0.0438623
-0.0440143
-0.0407286
-0.036525
-0.0332353
-0.0311783
-0.0294731
-0.0266967
-0.0215697
-0.013735
-0.00356418
0.00890181
0.0239463
0.0406146
0.0562198
0.0683904
0.0766937
0.0813634
0.0811298
0.0743652
0.0617315
0.0459618
0.0292778
0.012755
-0.00228114
-0.0140252
-0.0215306
-0.0254376
-0.0266213
-0.0250285
-0.0202052
-0.0127846
-0.00431352
-0.00490655
-0.0141957
-0.0215439
-0.025383
-0.0254312
-0.0226259
-0.0173949
-0.008924
0.00357876
0.0193221
0.0364855
0.0536473
0.0696532
0.0822607
0.088826
0.0888218
0.0839814
0.075559
0.063226
0.0473065
0.0301303
0.0143579
0.000856499
-0.0107632
-0.0204611
-0.027675
-0.0325063
-0.0360646
-0.039779
-0.0445698
-0.0500207
-0.0540575
-0.0538942
-0.0479911
-0.0373237
-0.0252203
-0.0148691
-0.0066463
0.00102181
0.00873568
0.0149566
0.0171648
0.014784
0.0105096
0.00764647
0.00696126
0.00637792
0.00335935
-0.00187154
-0.00603081
-0.0060305
-0.00187083
0.00335996
0.00637807
0.00696097
0.00764618
0.0105097
0.0147846
0.0171655
0.0149569
0.00873548
0.00102133
-0.00664663
-0.014869
-0.02522
-0.0373235
-0.0479909
-0.0538939
-0.054057
-0.0500204
-0.0445702
-0.0397804
-0.0360673
-0.0325102
-0.0276797
-0.0204659
-0.0107674
0.00085364
0.0143568
0.0301312
0.0473096
0.063231
0.0755656
0.0839893
0.0888308
0.0888355
0.0822692
0.0696591
0.0536494
0.0364837
0.019317
0.00357179
-0.00893138
-0.0174017
-0.0226322
-0.0254376
-0.0253897
-0.0215502
-0.0142003
-0.00490823
-0.00466063
-0.0133268
-0.0198003
-0.0226187
-0.0215235
-0.0173949
-0.0107813
-0.00114539
0.0120058
0.0277217
0.0441453
0.0600183
0.07456
0.086006
0.0920901
0.0922716
0.087964
0.080117
0.0683352
0.0529431
0.0362103
0.0206665
0.00701503
-0.00532415
-0.0164659
-0.0257953
-0.0331499
-0.0393087
-0.0454903
-0.0524453
-0.0595329
-0.0644747
-0.0643874
-0.0577305
-0.0456903
-0.0318382
-0.019496
-0.00922041
0.000346881
0.00960426
0.0167923
0.0193403
0.0168736
0.0123577
0.00928155
0.00838964
0.0074206
0.00373135
-0.00228923
-0.00699209
-0.00699165
-0.00228821
0.00373229
0.00742092
0.0083893
0.00928105
0.0123576
0.0168742
0.0193412
0.0167928
0.00960409
0.000346245
-0.00922099
-0.0194961
-0.031838
-0.0456898
-0.0577301
-0.064387
-0.0644744
-0.0595331
-0.0524464
-0.0454925
-0.039312
-0.0331539
-0.0257997
-0.01647
-0.00532749
0.00701276
0.0206656
0.0362112
0.0529461
0.0683402
0.0801237
0.0879718
0.09228
0.0920986
0.0860137
0.0745657
0.0600211
0.044145
0.0277184
0.0120002
-0.00115206
-0.0107882
-0.0174017
-0.0215306
-0.0226261
-0.0198072
-0.0133319
-0.00466248
-0.00342248
-0.00974467
-0.0143244
-0.0159325
-0.0140176
-0.008924
-0.00114539
0.00934711
0.022427
0.0368957
0.0510205
0.0639775
0.0756434
0.0849921
0.0902743
0.0908626
0.0876672
0.0812538
0.071184
0.0576969
0.0427474
0.0285103
0.0155023
0.0030366
-0.00914321
-0.0204464
-0.0304998
-0.0397189
-0.0489997
-0.0587572
-0.0679795
-0.0741545
-0.074388
-0.0672262
-0.0540679
-0.0386248
-0.0242706
-0.0118386
-0.000375547
0.010249
0.0181788
0.0210055
0.0186463
0.0141913
0.0110823
0.0099433
0.00842069
0.00393997
-0.00286665
-0.00805995
-0.00805943
-0.00286542
0.00394116
0.00842117
0.00994298
0.0110816
0.0141911
0.0186468
0.0210064
0.0181795
0.0102489
-0.000376234
-0.0118393
-0.0242709
-0.0386246
-0.0540674
-0.0672256
-0.0743876
-0.0741546
-0.0679803
-0.0587589
-0.0490025
-0.0397224
-0.0305036
-0.0204501
-0.00914637
0.00303423
0.0155008
0.0285099
0.0427485
0.0576998
0.0711888
0.0812602
0.0876744
0.0908699
0.0902812
0.0849982
0.0756482
0.0639807
0.0510218
0.0368948
0.0224237
0.00934177
-0.00115207
-0.00893138
-0.0140252
-0.0159397
-0.0143305
-0.00974877
-0.00342394
-0.00135105
-0.00379417
-0.00533536
-0.0051306
-0.00227406
0.00357876
0.0120058
0.022427
0.0341338
0.0459362
0.0565085
0.0655647
0.0735892
0.0802509
0.0843353
0.0851781
0.0832541
0.0788471
0.0715018
0.061181
0.0491802
0.0370776
0.0252261
0.0129997
0.000109907
-0.0128975
-0.025508
-0.0378314
-0.0504493
-0.0633827
-0.0751518
-0.0829419
-0.0838349
-0.07647
-0.0624258
-0.0454889
-0.0290771
-0.0144079
-0.0010706
0.0107947
0.0193873
0.0226254
0.0207134
0.0166601
0.0136402
0.0121313
0.0098608
0.00452848
-0.00295163
-0.00849983
-0.00849933
-0.00295043
0.00452967
0.00986134
0.0121311
0.0136397
0.0166599
0.0207139
0.0226263
0.0193879
0.0107947
-0.00107129
-0.0144087
-0.0290774
-0.0454887
-0.0624254
-0.0764697
-0.0838349
-0.0829424
-0.075153
-0.0633847
-0.0504521
-0.0378347
-0.0255114
-0.0129006
0.000107486
0.0129982
0.0252256
0.0370781
0.0491818
0.0611839
0.0715061
0.0788524
0.0832598
0.0851837
0.0843404
0.0802552
0.0735926
0.0655676
0.0565107
0.0459373
0.0341329
0.0224237
0.0120002
0.00357178
-0.00228115
-0.00513657
-0.00533957
-0.00379658
-0.00135182
0.00106208
0.003261
0.00563504
0.00847025
0.0127603
0.0193221
0.0277217
0.0368957
0.0459362
0.054104
0.0606807
0.065758
0.0701158
0.0739305
0.0765176
0.0772897
0.076429
0.0740702
0.0697802
0.0631432
0.0546143
0.0450648
0.0347189
0.0230987
0.00991228
-0.0043976
-0.0192491
-0.0345097
-0.0504725
-0.066751
-0.081361
-0.0911466
-0.0931378
-0.0860317
-0.0714879
-0.0532517
-0.0347585
-0.0177002
-0.00234407
0.0108538
0.020232
0.0241281
0.0229918
0.0195818
0.0166694
0.0146336
0.0114855
0.00537937
-0.00251366
-0.0081888
-0.00818833
-0.0025125
0.00538056
0.0114861
0.0146335
0.016669
0.0195817
0.0229922
0.024129
0.0202326
0.0108537
-0.00234475
-0.0177009
-0.0347588
-0.0532514
-0.0714876
-0.0860317
-0.0931384
-0.0911478
-0.0813626
-0.0667531
-0.050475
-0.0345126
-0.019252
-0.00440014
0.00991052
0.0230981
0.0347194
0.0450663
0.0546166
0.0631461
0.0697835
0.0740738
0.0764327
0.0772934
0.076521
0.0739333
0.0701183
0.0657604
0.0606832
0.0541062
0.0459373
0.0368948
0.0277184
0.019317
0.012755
0.00846617
0.00563279
0.00326014
0.00106191
0.00335305
0.0101652
0.0168734
0.0230375
0.0292802
0.0364855
0.0441453
0.0510205
0.0565085
0.0606807
0.0634213
0.0648897
0.0658489
0.0668877
0.0679097
0.0684924
0.0685729
0.0681686
0.0668958
0.0639995
0.0591382
0.0525109
0.0442125
0.033845
0.0209905
0.00585663
-0.0109725
-0.0291157
-0.0485106
-0.0683035
-0.0860067
-0.0981711
-0.101814
-0.0956644
-0.081293
-0.0621961
-0.0417505
-0.0222048
-0.00467667
0.00994968
0.0201851
0.0248708
0.0246936
0.0220552
0.0192339
0.0165538
0.0124651
0.00571062
-0.00232297
-0.00790458
-0.00790407
-0.0023217
0.00571199
0.012466
0.0165539
0.0192334
0.0220549
0.0246939
0.0248715
0.0201858
0.0099497
-0.00467732
-0.0222056
-0.0417509
-0.062196
-0.0812929
-0.0956647
-0.101815
-0.0981728
-0.0860088
-0.0683057
-0.0485131
-0.0291182
-0.0109748
0.00585489
0.0209897
0.0338454
0.044214
0.0525133
0.059141
0.0640023
0.0668982
0.0681706
0.0685745
0.0684939
0.0679112
0.0668891
0.0658503
0.0648914
0.0634235
0.0606832
0.0565107
0.0510218
0.044145
0.0364837
0.0292778
0.0230357
0.0168727
0.0101651
0.00335313
0.00540878
0.0165366
0.0276605
0.0375091
0.0459605
0.0536473
0.0600183
0.0639775
0.0655647
0.065758
0.0648897
0.0629472
0.0605708
0.058831
0.0583039
0.0587404
0.0597763
0.0612701
0.0629057
0.0637033
0.0626774
0.059442
0.0539224
0.0456508
0.0339014
0.0184971
-2.81787e-05
-0.0209943
-0.0438544
-0.0671969
-0.0880688
-0.10284
-0.108599
-0.10408
-0.0905772
-0.0711266
-0.0489933
-0.0270648
-0.00743181
0.00854314
0.0196146
0.0252043
0.0261905
0.0244763
0.021747
0.0183127
0.0132149
0.00591991
-0.00200581
-0.00729244
-0.00729194
-0.00200453
0.00592138
0.0132159
0.0183129
0.0217465
0.0244758
0.0261905
0.0252048
0.0196153
0.00854329
-0.0074324
-0.0270658
-0.0489942
-0.071127
-0.0905774
-0.104081
-0.1086
-0.102842
-0.0880711
-0.0671994
-0.0438568
-0.0209965
-2.96892e-05
0.0184965
0.0339019
0.0456523
0.0539248
0.0594449
0.0626803
0.0637058
0.0629074
0.0612709
0.0597763
0.0587399
0.0583034
0.0588308
0.0605711
0.0629482
0.0648914
0.0657604
0.0655676
0.0639807
0.0600211
0.0536494
0.0459618
0.03751
0.027661
0.0165368
0.00540882
0.0073691
0.0226033
0.0379215
0.051264
0.0617263
0.0696532
0.07456
0.0756434
0.0735892
0.0701158
0.0658489
0.0605708
0.0548727
0.0503803
0.0483152
0.0485284
0.0503156
0.0533971
0.0575808
0.0617759
0.0644895
0.0648305
0.0625329
0.0569749
0.0470268
0.0320236
0.0123638
-0.0110045
-0.0370011
-0.0636212
-0.0874985
-0.104902
-0.113013
-0.110532
-0.0983441
-0.0789357
-0.0554789
-0.0315268
-0.0100955
0.00708345
0.0191176
0.0259897
0.0285733
0.0280359
0.0253786
0.021013
0.0147987
0.00708781
-0.000431557
-0.0051817
-0.00518133
-0.000430576
0.00708904
0.0147997
0.0210135
0.0253785
0.0280356
0.0285732
0.0259901
0.0191181
0.00708358
-0.0100961
-0.0315279
-0.0554801
-0.0789365
-0.0983446
-0.110532
-0.113014
-0.104903
-0.0875008
-0.0636236
-0.0370032
-0.0110061
0.0123632
0.0320242
0.0470285
0.0569774
0.0625358
0.0648335
0.0644921
0.0617779
0.0575818
0.0533969
0.0503141
0.048526
0.0483125
0.0503781
0.0548717
0.0605711
0.0658503
0.0701183
0.0735926
0.0756482
0.0745657
0.0696591
0.0617315
0.0512677
0.0379234
0.0226038
0.00736913
0.00919759
0.0280679
0.0467377
0.0626118
0.0743572
0.0822607
0.086006
0.0849921
0.0802509
0.0739305
0.0668877
0.058831
0.0503803
0.0436012
0.0401483
0.0398799
0.0418501
0.045814
0.051818
0.0587364
0.0646408
0.0681952
0.0689801
0.0662675
0.058565
0.044681
0.0247329
-0.000239058
-0.028727
-0.0581889
-0.0848882
-0.104979
-0.115656
-0.115504
-0.104954
-0.0859602
-0.0616649
-0.0362349
-0.0134209
0.00487261
0.0181785
0.0269057
0.0316316
0.0325407
0.0299128
0.0244304
0.0170104
0.00902962
0.00222084
-0.00175458
-0.00175438
0.00222141
0.00903047
0.0170113
0.0244311
0.0299131
0.0325407
0.0316316
0.0269059
0.0181788
0.00487254
-0.0134216
-0.0362361
-0.0616662
-0.0859613
-0.104955
-0.115505
-0.115657
-0.104981
-0.0848904
-0.058191
-0.0287286
-0.000239796
0.0247332
0.0446826
0.0585676
0.0662706
0.0689832
0.0681981
0.064643
0.0587376
0.0518181
0.0458126
0.0418473
0.039876
0.0401439
0.0435975
0.0503781
0.0588308
0.0668891
0.0739333
0.0802552
0.0849982
0.0860137
0.0822692
0.0743652
0.0626179
0.0467413
0.0280693
0.00919789
0.0105519
0.0318611
0.0522836
0.0691104
0.0811206
0.088826
0.0920901
0.0902743
0.0843353
0.0765176
0.0679097
0.0583039
0.0483152
0.0401483
0.0355924
0.0344954
0.0359141
0.0399079
0.0468907
0.0557452
0.0641475
0.0703685
0.0738896
0.0739624
0.0688178
0.0567288
0.0373787
0.0116861
-0.0185752
-0.0504306
-0.0798348
-0.102802
-0.116424
-0.119057
-0.11061
-0.0925221
-0.0679486
-0.0416101
-0.0178232
0.00147076
0.0162424
0.0271886
0.0343789
0.036877
0.0342568
0.0275907
0.018984
0.0108916
0.00502261
0.00198583
0.00198591
0.00502292
0.0108923
0.0189849
0.0275915
0.0342573
0.0368772
0.0343787
0.0271885
0.0162423
0.00147046
-0.017824
-0.0416113
-0.06795
-0.0925233
-0.110611
-0.119059
-0.116426
-0.102805
-0.079837
-0.0504323
-0.018576
0.0116864
0.0373801
0.0567312
0.0688209
0.0739658
0.0738929
0.0703711
0.0641493
0.0557456
0.0468896
0.0399053
0.0359102
0.0344906
0.0355874
0.0401439
0.0483125
0.0583034
0.0679112
0.076521
0.0843404
0.0902812
0.0920986
0.0888355
0.0811298
0.0691181
0.052289
0.031864
0.0105528
0.0111385
0.0332183
0.0536039
0.0698918
0.0813544
0.0888218
0.0922716
0.0908626
0.0851781
0.0772897
0.0684924
0.0587404
0.0485284
0.0398799
0.0344954
0.0322839
0.0325581
0.0358789
0.0431008
0.0531792
0.0634956
0.0720099
0.0781154
0.0810395
0.0787597
0.069021
0.0510055
0.0254023
-0.00585742
-0.0394992
-0.0713133
-0.0972371
-0.114175
-0.120103
-0.114279
-0.0975954
-0.0732512
-0.0464987
-0.0221191
-0.00201781
0.014203
0.0274288
0.0371058
0.0411491
0.0384899
0.0306818
0.0210715
0.0131574
0.00852136
0.00660727
0.00660729
0.00852152
0.0131579
0.0210725
0.0306829
0.0384907
0.0411492
0.0371053
0.0274281
0.0142024
-0.00201834
-0.0221198
-0.0464999
-0.0732527
-0.0975968
-0.11428
-0.120105
-0.114176
-0.0972392
-0.0713152
-0.0395004
-0.00585742
0.0254036
0.0510078
0.0690241
0.0787632
0.081043
0.0781185
0.0720123
0.0634968
0.0531787
0.0430984
0.035875
0.0325532
0.0322788
0.0344906
0.039876
0.048526
0.0587399
0.0684939
0.0772934
0.0851837
0.0908699
0.09228
0.0888308
0.0813634
0.0699
0.0536105
0.0332226
0.0111399
0.0108794
0.0321019
0.0511061
0.0660459
0.0766858
0.0839814
0.087964
0.0876672
0.0832541
0.076429
0.0685729
0.0597763
0.0503156
0.0418501
0.0359141
0.0325581
0.0314366
0.0335951
0.0403178
0.0507804
0.0623137
0.0727206
0.0812762
0.0870852
0.0878378
0.0807982
0.0646951
0.039998
0.00872549
-0.0257324
-0.0592386
-0.0877987
-0.108085
-0.117539
-0.114651
-0.0997611
-0.0761433
-0.049514
-0.024956
-0.00423027
0.0134545
0.0290073
0.0411007
0.04651
0.0436652
0.0347596
0.0244553
0.0172092
0.0142948
0.0138102
0.0138101
0.0142947
0.0172096
0.0244564
0.034761
0.0436663
0.0465102
0.0411
0.0290061
0.0134534
-0.00423111
-0.0249568
-0.049515
-0.0761447
-0.0997628
-0.114652
-0.117541
-0.108086
-0.0878003
-0.0592399
-0.0257328
0.00872631
0.0400001
0.0646981
0.0808017
0.0878415
0.0870885
0.0812788
0.0727222
0.0623139
0.0507787
0.0403142
0.0335901
0.0314313
0.0325532
0.0359102
0.0418473
0.0503141
0.0597763
0.0685746
0.0764327
0.0832598
0.0876744
0.0879718
0.0839893
0.0766937
0.0660536
0.051113
0.0321069
0.0108812
0.00972707
0.0285353
0.0452015
0.0585041
0.0683839
0.075559
0.080117
0.0812538
0.0788471
0.0740702
0.0681686
0.0612701
0.0533971
0.045814
0.0399079
0.0358789
0.0335951
0.0343611
0.039817
0.0495755
0.0612587
0.0727213
0.0831138
0.0913479
0.0948452
0.0905
0.0766853
0.0536708
0.0234587
-0.0106708
-0.0449026
-0.0754502
-0.0987359
-0.111602
-0.111778
-0.099125
-0.0769609
-0.0512321
-0.0270074
-0.00575502
0.0135937
0.031681
0.0461916
0.0527975
0.0496226
0.0396857
0.0290233
0.0229279
0.0221796
0.023392
0.0233918
0.0221792
0.022928
0.0290242
0.0396873
0.049624
0.0527979
0.0461908
0.0316794
0.0135921
-0.00575621
-0.0270083
-0.0512331
-0.0769624
-0.0991269
-0.11178
-0.111604
-0.0987373
-0.0754512
-0.044903
-0.0106703
0.0234604
0.0536735
0.0766887
0.0905038
0.0948487
0.0913507
0.0831154
0.0727215
0.0612573
0.0495725
0.0398125
0.0343559
0.0335901
0.035875
0.0399053
0.0458126
0.0533969
0.0612709
0.0681706
0.0740738
0.0788524
0.0812602
0.0801238
0.0755656
0.0683904
0.0585107
0.0452077
0.0285399
0.00972879
0.00762923
0.0224043
0.0357707
0.0471186
0.0562149
0.063226
0.0683352
0.071184
0.0715018
0.0697802
0.0668958
0.0629057
0.0575808
0.051818
0.0468907
0.0431008
0.0403178
0.039817
0.0434894
0.0515618
0.0622338
0.0735993
0.084745
0.094443
0.099967
0.0979859
0.0865923
0.0658415
0.0375957
0.00482429
-0.0291714
-0.0609247
-0.0866563
-0.102674
-0.106081
-0.0963362
-0.0766633
-0.0528565
-0.0295935
-0.0079382
0.0132711
0.0340963
0.0510606
0.0588095
0.0553173
0.0444985
0.0337114
0.0289468
0.0304285
0.0333439
0.0333436
0.0304279
0.0289466
0.033712
0.0444999
0.0553187
0.0588101
0.05106
0.0340947
0.0132693
-0.0079397
-0.0295946
-0.0528576
-0.0766649
-0.0963382
-0.106083
-0.102676
-0.0866574
-0.060925
-0.0291708
0.00482587
0.0375983
0.0658448
0.0865959
0.0979894
0.0999699
0.0944448
0.0847453
0.0735979
0.0622309
0.0515578
0.0434847
0.0398125
0.0403142
0.0430984
0.0468896
0.0518181
0.0575818
0.0629074
0.0668982
0.0697836
0.0715061
0.0711889
0.0683402
0.063231
0.0562198
0.0471233
0.0357749
0.0224073
0.00763032
0.00486225
0.0144176
0.023654
0.0325654
0.0406116
0.0473065
0.0529431
0.0576969
0.061181
0.0631432
0.0639995
0.0637033
0.0617759
0.0587364
0.0557452
0.0531792
0.0507804
0.0495755
0.0515618
0.0575924
0.0665487
0.0768801
0.0877295
0.0978812
0.10462
0.104513
0.0954292
0.0772166
0.0515336
0.0209206
-0.0119562
-0.0440546
-0.0715239
-0.0903152
-0.0970945
-0.0909866
-0.0749127
-0.0541116
-0.0325311
-0.0107598
0.0122912
0.0358707
0.0552537
0.0641532
0.0604746
0.0489734
0.0381863
0.0346729
0.0381453
0.0425678
0.0425674
0.0381444
0.0346723
0.0381865
0.0489745
0.0604759
0.0641538
0.0552532
0.0358691
0.0122892
-0.0107616
-0.0325326
-0.054113
-0.0749144
-0.0909887
-0.0970965
-0.0903167
-0.0715244
-0.044054
-0.0119546
0.0209231
0.0515368
0.0772202
0.0954326
0.104516
0.104622
0.0978817
0.0877284
0.0768775
0.0665449
0.057588
0.0515578
0.0495725
0.0507787
0.0531787
0.0557456
0.0587376
0.0617779
0.0637059
0.0640023
0.0631461
0.0611839
0.0576998
0.0529461
0.0473096
0.0406146
0.0325679
0.0236557
0.0144185
0.00486249
0.00207128
0.00630813
0.0111838
0.0172974
0.0239455
0.0301303
0.0362103
0.0427474
0.0491802
0.0546143
0.0591382
0.0626774
0.0644895
0.0646408
0.0641475
0.0634956
0.0623137
0.0612587
0.0622338
0.0665487
0.0737051
0.0825553
0.0924193
0.102237
0.109426
0.110564
0.103399
0.087655
0.0648032
0.0369119
0.00595716
-0.0255178
-0.0537478
-0.074561
-0.0844371
-0.0822842
-0.0705829
-0.0536824
-0.0345034
-0.0130702
0.0115378
0.0376207
0.0591955
0.069165
0.0654368
0.0535229
0.0429594
0.0407184
0.0460217
0.0517963
0.0517959
0.0460207
0.0407175
0.0429594
0.0535239
0.0654381
0.0691657
0.0591951
0.037619
0.0115354
-0.0130725
-0.0345053
-0.053684
-0.0705846
-0.0822861
-0.0844387
-0.0745618
-0.0537474
-0.0255161
0.00595971
0.036915
0.0648066
0.0876583
0.103402
0.110566
0.109426
0.102236
0.092417
0.082552
0.0737012
0.0665449
0.0622309
0.0612573
0.0623139
0.0634968
0.0641493
0.0646431
0.0644921
0.0626803
0.059141
0.0546166
0.0491818
0.0427485
0.0362112
0.0301312
0.0239463
0.0172975
0.0111831
0.00630713
0.0020708
-0.000151762
-0.000288687
0.000684263
0.00393977
0.00890317
0.0143579
0.0206665
0.0285103
0.0370776
0.0450648
0.0525109
0.059442
0.0648305
0.0681952
0.0703685
0.0720099
0.0727206
0.0727213
0.0735993
0.0768801
0.0825553
0.0898699
0.0983632
0.107193
0.114004
0.115529
0.109545
0.0957755
0.075555
0.0505096
0.0219847
-0.00795221
-0.0357492
-0.0573898
-0.0695139
-0.0710436
-0.0639782
-0.0515287
-0.0353504
-0.0148347
0.0107107
0.0386083
0.0617571
0.0725008
0.0688863
0.0570675
0.0472972
0.0466938
0.0539308
0.0610392
0.0610388
0.0539299
0.0466931
0.0472972
0.0570684
0.0688875
0.0725014
0.0617565
0.0386062
0.0107078
-0.0148376
-0.0353527
-0.0515303
-0.0639795
-0.0710447
-0.0695145
-0.0573895
-0.0357477
-0.00794968
0.0219878
0.0505128
0.0755579
0.0957779
0.109546
0.11553
0.114003
0.107191
0.0983602
0.0898665
0.082552
0.0768775
0.0735979
0.0727215
0.0727222
0.0720123
0.0703711
0.0681981
0.0648335
0.0594449
0.0525133
0.0450663
0.0370781
0.0285099
0.0206656
0.0143568
0.0089018
0.00393787
0.000681915
-0.000290748
-0.000152601
-0.00166372
-0.0049341
-0.00712483
-0.00659754
-0.00356094
0.000856499
0.00701503
0.0155023
0.0252261
0.0347189
0.0442125
0.0539224
0.0625329
0.0689801
0.0738896
0.0781154
0.0812762
0.0831138
0.084745
0.0877295
0.0924193
0.0983632
0.105254
0.112476
0.11801
0.118914
0.113129
0.100452
0.082128
0.0594618
0.0333674
0.00557159
-0.0206787
-0.0418368
-0.0551049
-0.059687
-0.0571008
-0.0492641
-0.0364686
-0.0175192
0.00798329
0.0365015
0.0601742
0.0711992
0.0679344
0.0569739
0.0488643
0.0505004
0.0599124
0.068391
0.0683908
0.0599119
0.0505001
0.0488644
0.0569746
0.0679353
0.0711995
0.0601733
0.0364991
0.00797996
-0.0175226
-0.0364712
-0.0492657
-0.0571015
-0.0596871
-0.0551043
-0.0418355
-0.0206765
0.00557452
0.0333705
0.0594646
0.0821301
0.100453
0.11313
0.118913
0.118008
0.112474
0.105251
0.0983602
0.092417
0.0877284
0.0847453
0.0831155
0.0812789
0.0781185
0.0738929
0.0689833
0.0625358
0.0539248
0.044214
0.0347194
0.0252256
0.0155008
0.00701276
0.000853632
-0.00356419
-0.00660094
-0.00712797
-0.00493636
-0.00166455
-0.00265371
-0.008078
-0.0127145
-0.0146614
-0.0137304
-0.0107632
-0.00532415
0.0030366
0.0129997
0.0230987
0.033845
0.0456508
0.0569749
0.0662675
0.0739624
0.0810395
0.0870852
0.0913479
0.094443
0.0978812
0.102237
0.107193
0.112476
0.117707
0.121327
0.120853
0.114434
0.101929
0.084548
0.0634465
0.0393808
0.0139172
-0.0100729
-0.0297953
-0.0433387
-0.0503602
-0.0518781
-0.0484802
-0.0391831
-0.0223737
0.00200675
0.0297962
0.0528357
0.0636054
0.0608918
0.0514749
0.0457634
0.0500955
0.0618071
0.0716292
0.0716292
0.061807
0.0500955
0.0457636
0.0514753
0.060892
0.0636051
0.0528343
0.0297935
0.0020033
-0.0223772
-0.0391857
-0.0484814
-0.0518781
-0.0503592
-0.0433371
-0.0297932
-0.0100704
0.0139199
0.0393833
0.0634484
0.0845491
0.101929
0.114433
0.120852
0.121324
0.117704
0.112474
0.107191
0.102236
0.0978817
0.0944449
0.0913507
0.0870885
0.081043
0.0739658
0.0662706
0.0569775
0.0456523
0.0338454
0.0230981
0.0129982
0.00303422
-0.0053275
-0.0107674
-0.013735
-0.0146656
-0.0127177
-0.00807993
-0.00265434
-0.00329169
-0.0101162
-0.0164539
-0.0204038
-0.0215647
-0.0204611
-0.0164659
-0.00914321
0.000109907
0.00991228
0.0209905
0.0339014
0.0470268
0.058565
0.0688178
0.0787597
0.0878378
0.0948452
0.099967
0.10462
0.109426
0.114004
0.11801
0.121327
0.12296
0.120941
0.113597
0.100798
0.0837144
0.0634889
0.0409573
0.0176923
-0.00383783
-0.0217527
-0.0351713
-0.0442232
-0.0493875
-0.0499825
-0.043955
-0.0294869
-0.00690165
0.0192301
0.0408235
0.0509422
0.0488375
0.0412465
0.0381225
0.0450637
0.0587849
0.0697052
0.0697052
0.0587849
0.0450636
0.0381222
0.0412462
0.0488369
0.0509412
0.0408218
0.0192276
-0.00690471
-0.0294898
-0.0439569
-0.0499831
-0.0493868
-0.0442215
-0.0351691
-0.0217504
-0.00383557
0.0176943
0.0409589
0.0634899
0.0837147
0.100798
0.113596
0.120939
0.122958
0.121324
0.118008
0.114003
0.109426
0.104622
0.0999699
0.0948488
0.0878415
0.0787632
0.0688209
0.0585676
0.0470285
0.0339019
0.0209897
0.00991052
0.000107479
-0.00914638
-0.01647
-0.0204659
-0.0215697
-0.0204081
-0.0164568
-0.0101177
-0.0032921
-0.00363682
-0.0111869
-0.018439
-0.0237222
-0.0266922
-0.027675
-0.0257953
-0.0204464
-0.0128975
-0.0043976
0.00585663
0.0184971
0.0320236
0.044681
0.0567288
0.069021
0.0807982
0.0905
0.0979859
0.104513
0.110564
0.115529
0.118914
0.120853
0.120941
0.117741
0.109737
0.0967312
0.0797931
0.0601049
0.0387356
0.0173803
-0.00189539
-0.018152
-0.0314877
-0.0423757
-0.0506835
-0.0545684
-0.0511719
-0.0387217
-0.0180084
0.00612463
0.0259266
0.035233
0.0337254
0.0278772
0.0269576
0.0357867
0.0506904
0.0621564
0.0621564
0.0506902
0.0357861
0.0269566
0.0278759
0.0337239
0.0352314
0.0259249
0.00612256
-0.0180107
-0.0387236
-0.0511731
-0.0545683
-0.0506823
-0.0423738
-0.0314855
-0.01815
-0.00189376
0.0173815
0.0387363
0.0601052
0.0797928
0.0967305
0.109736
0.11774
0.120939
0.120852
0.118913
0.11553
0.110566
0.104516
0.0979894
0.0905038
0.0808018
0.0690241
0.0567312
0.0446826
0.0320242
0.0184965
0.00585489
-0.00440015
-0.0129006
-0.0204501
-0.0257997
-0.0276797
-0.0266967
-0.0237259
-0.0184414
-0.011188
-0.00363709
-0.00375309
-0.0115192
-0.0190836
-0.0251003
-0.0294697
-0.0325063
-0.0331499
-0.0304998
-0.025508
-0.0192491
-0.0109725
-2.81787e-05
0.0123638
0.0247329
0.0373787
0.0510055
0.0646951
0.0766853
0.0865923
0.0954292
0.103399
0.109545
0.113129
0.114434
0.113597
0.109737
0.101505
0.0885691
0.0718374
0.0525667
0.0321473
0.0124358
-0.0049219
-0.0198717
-0.0333154
-0.0458628
-0.0566968
-0.0629686
-0.0613393
-0.0503642
-0.0313839
-0.0093605
0.00854403
0.0170725
0.016238
0.0120041
0.0127528
0.0225545
0.0376481
0.0490128
0.0490128
0.0376478
0.0225537
0.0127512
0.012002
0.0162357
0.0170704
0.00854231
-0.00936196
-0.0313852
-0.0503652
-0.0613398
-0.0629682
-0.0566956
-0.0458611
-0.0333137
-0.0198702
-0.0049209
0.0124363
0.0321475
0.0525666
0.0718371
0.0885685
0.101504
0.109736
0.113596
0.114433
0.11313
0.109546
0.103402
0.0954326
0.0865959
0.0766887
0.0646981
0.0510078
0.0373801
0.0247332
0.0123632
-2.96934e-05
-0.0109748
-0.019252
-0.0255114
-0.0305036
-0.0331539
-0.0325102
-0.0294731
-0.025103
-0.0190853
-0.0115201
-0.00375331
-0.00376777
-0.0115608
-0.0192391
-0.0257226
-0.0311763
-0.0360646
-0.0393087
-0.0397189
-0.0378314
-0.0345097
-0.0291157
-0.0209943
-0.0110045
-0.000239058
0.0116861
0.0254023
0.039998
0.0536708
0.0658415
0.0772166
0.087655
0.0957755
0.100452
0.101929
0.100798
0.0967312
0.0885691
0.0758536
0.059376
0.0405595
0.0211494
0.00310355
-0.0124192
-0.0261767
-0.0396717
-0.0534633
-0.0660508
-0.0738316
-0.0733585
-0.0637336
-0.0467845
-0.0272962
-0.0115256
-0.00370904
-0.00363057
-0.00608769
-0.00379251
0.00656834
0.0213371
0.0322476
0.0322475
0.0213368
0.00656749
-0.00379419
-0.00609008
-0.00363319
-0.00371138
-0.0115273
-0.0272974
-0.0467853
-0.0637341
-0.0733587
-0.0738313
-0.0660499
-0.053462
-0.0396704
-0.0261756
-0.0124185
0.00310386
0.0211495
0.0405594
0.0593758
0.0758532
0.0885685
0.0967305
0.100798
0.101929
0.100453
0.0957779
0.0876583
0.0772202
0.0658448
0.0536735
0.0400001
0.0254036
0.0116864
-0.000239799
-0.0110061
-0.0209965
-0.0291182
-0.0345126
-0.0378347
-0.0397224
-0.039312
-0.0360673
-0.0311783
-0.0257241
-0.0192403
-0.0115615
-0.00376796
-0.00381046
-0.0117455
-0.0197184
-0.0267758
-0.0332345
-0.039779
-0.0454903
-0.0489997
-0.0504493
-0.0504725
-0.0485106
-0.0438544
-0.0370011
-0.028727