/*--------------------------------*- C++ -*----------------------------------*\
  =========                 |
  \\      /  F ield         | OpenFOAM: The Open Source CFD Toolbox
   \\    /   O peration     | Website:  https://openfoam.org
    \\  /    A nd           | Version:  10
     \\/     M anipulation  |
\*---------------------------------------------------------------------------*/
FoamFile
{
    format      ascii;
    class       volScalarField;
    location    "29";
    object      h_0;
}
// * * * * * * * * * * * * * * * * * * * * * * * * * * * * * * * * * * * * * //

dimensions      [0 1 0 0 0 0 0];

internalField   nonuniform List<scalar> 
10000
(
-2.45617e-05
-0.000176867
-0.000373975
-0.000489481
-0.000129899
0.00085718
0.000917451
-0.00045691
-0.00111495
-0.000344705
0.000394654
-4.62605e-05
-0.00119482
-0.000802869
0.000803633
0.000728651
-0.000223445
-8.3961e-05
5.52006e-05
-0.00076993
-0.00164605
-0.00110798
0.000561908
0.00110498
-0.000689933
-0.00377719
-0.00662387
-0.00816636
-0.00759012
-0.00480401
-0.000236199
0.00452377
0.00797568
0.0099521
0.0111101
0.012608
0.0141759
0.0149361
0.0135891
0.00983265
0.00439513
-0.00137163
-0.00606106
-0.00900855
-0.0100591
-0.00975256
-0.00863927
-0.00737729
-0.00632508
-0.00575844
-0.00575846
-0.00632516
-0.00737741
-0.00863941
-0.00975272
-0.0100592
-0.00900864
-0.00606108
-0.00137156
0.00439532
0.00983296
0.0135895
0.0149366
0.0141765
0.0126087
0.0111107
0.00995286
0.0079764
0.00452431
-0.000236027
-0.00480426
-0.00759068
-0.00816712
-0.00662456
-0.00377762
-0.000689966
0.00110525
0.000562017
-0.00110821
-0.00164627
-0.000769866
5.54967e-05
-8.38154e-05
-0.000223506
0.000729029
0.000804072
-0.000803193
-0.0011952
-4.61047e-05
0.000394868
-0.000344884
-0.00111561
-0.000457218
0.000918161
0.00085793
-0.000129924
-0.000489879
-0.000374308
-0.000176962
-2.45253e-05
-0.000176867
-0.000106182
0.000152453
-0.000558413
-0.000934433
0.000735537
0.00136901
-0.00100387
-0.00235478
-0.000408027
0.00177338
0.000503453
-0.0028151
-0.0023357
0.00100935
0.000938106
-0.00113552
-0.00124307
-0.00110716
-0.00283295
-0.00440457
-0.00218682
0.00278002
0.00477217
0.000572098
-0.00770171
-0.0162848
-0.0219856
-0.0222515
-0.0161341
-0.0046709
0.00774393
0.0170962
0.0225499
0.0262005
0.030952
0.0362544
0.0394625
0.0368321
0.0274397
0.0130954
-0.00223061
-0.0147291
-0.0222491
-0.0245025
-0.0228458
-0.0190205
-0.0148331
-0.0114388
-0.00960286
-0.00960289
-0.0114389
-0.0148332
-0.0190207
-0.0228459
-0.0245026
-0.0222491
-0.014729
-0.0022304
0.0130958
0.0274402
0.0368326
0.0394629
0.0362546
0.0309521
0.0262006
0.0225502
0.0170965
0.007744
-0.0046714
-0.0161353
-0.0222529
-0.0219869
-0.0162855
-0.00770148
0.000573285
0.00477379
0.00278084
-0.00218735
-0.00440549
-0.00283325
-0.00110687
-0.00124297
-0.00113568
0.000938748
0.00101003
-0.00233664
-0.0028161
0.000504162
0.00177457
-0.000408116
-0.00235615
-0.00100443
0.00137021
0.000736291
-0.000935051
-0.00055881
0.00015262
-0.000106179
-0.000176954
-0.000373975
0.000152453
0.00122417
3.67113e-05
-0.00169059
-0.000965038
0.000363323
-0.000384002
-0.00161452
-0.000412102
0.00171484
0.000254378
-0.00323711
-0.00288846
6.69073e-05
0.000478345
-0.00147409
-0.0027525
-0.00312848
-0.00447684
-0.00532021
-0.0021184
0.00354492
0.00559713
0.000221589
-0.0110989
-0.024026
-0.0335411
-0.0352948
-0.0266553
-0.00930885
0.0102099
0.0258031
0.0352979
0.041972
0.0493661
0.0574172
0.062004
0.0579019
0.0435459
0.021447
-0.00225792
-0.0219488
-0.0338422
-0.0376351
-0.0350187
-0.0289679
-0.0221449
-0.0166326
-0.0136033
-0.0136033
-0.0166326
-0.0221449
-0.028968
-0.0350187
-0.0376351
-0.0338421
-0.0219486
-0.00225755
0.0214475
0.0435466
0.0579026
0.0620046
0.0574172
0.0493657
0.0419716
0.0352976
0.025803
0.0102093
-0.0093102
-0.0266575
-0.0352972
-0.0335428
-0.0240265
-0.011098
0.000223797
0.00559968
0.00354644
-0.00211867
-0.00532141
-0.0044776
-0.00312868
-0.0027526
-0.00147393
0.000479034
6.73658e-05
-0.00288941
-0.00323833
0.000254967
0.00171626
-0.000411984
-0.00161525
-0.000383902
0.000363981
-0.000965557
-0.00169183
3.69127e-05
0.00122535
0.000152626
-0.000374305
-0.000489481
-0.000558413
3.67113e-05
7.72629e-05
-0.000228163
-0.00079525
-0.000835736
-0.000115571
-0.000453275
-0.00117512
-0.00091254
-0.00135737
-0.00226737
-0.00186407
-0.000580393
0.000119153
-0.00134541
-0.00368198
-0.00445392
-0.00446489
-0.00408353
-0.00230022
4.50675e-05
-0.000153585
-0.00595007
-0.0176856
-0.0320338
-0.0430548
-0.0446198
-0.0324722
-0.00899426
0.0182018
0.0409556
0.0556783
0.0654862
0.0739058
0.0818905
0.0847583
0.0773043
0.0572055
0.0276555
-0.00423347
-0.0312542
-0.0484295
-0.0550208
-0.052878
-0.0458209
-0.0372908
-0.0302331
-0.026284
-0.026284
-0.0302333
-0.0372911
-0.0458212
-0.0528783
-0.0550212
-0.0484298
-0.0312544
-0.00423329
0.0276561
0.0572067
0.0773058
0.0847598
0.0818917
0.0739068
0.0654871
0.0556794
0.0409568
0.0182022
-0.00899529
-0.0324748
-0.044623
-0.0430575
-0.0320352
-0.0176854
-0.00594872
-0.000151877
4.63592e-05
-0.00229984
-0.00408392
-0.00446542
-0.00445436
-0.00368217
-0.00134489
0.000119937
-0.00057996
-0.00186417
-0.00226795
-0.00135762
-0.000912414
-0.00117518
-0.000453104
-0.00011531
-0.000835921
-0.000795456
-0.000228109
7.75238e-05
3.69153e-05
-0.000558808
-0.000489881
-0.000129899
-0.000934433
-0.00169059
-0.000228163
0.00168209
7.08612e-05
-0.00228357
-0.001198
0.000200364
-0.00109181
-0.00273344
-0.00219642
-0.000587328
-0.000805721
-0.001943
-0.00205358
-0.0030865
-0.0051396
-0.00539746
-0.00346217
-0.00181664
-0.00238006
-0.00418171
-0.00651725
-0.0115021
-0.0217898
-0.0359646
-0.0480963
-0.050374
-0.0374711
-0.0113725
0.0207215
0.0493281
0.0697706
0.0830321
0.0923833
0.0993041
0.100069
0.090283
0.0670761
0.0338066
-0.00280153
-0.0343717
-0.0554467
-0.0642251
-0.0627141
-0.0548483
-0.0449125
-0.0364193
-0.0316284
-0.0316284
-0.0364194
-0.0449127
-0.0548486
-0.0627144
-0.0642255
-0.055447
-0.0343719
-0.00280146
0.0338072
0.0670772
0.0902846
0.10007
0.0993054
0.0923843
0.083033
0.0697716
0.0493289
0.0207215
-0.0113741
-0.0374742
-0.0503777
-0.0480992
-0.0359657
-0.0217894
-0.011501
-0.00651608
-0.00418065
-0.00237895
-0.00181585
-0.0034622
-0.00539814
-0.00514018
-0.00308648
-0.00205338
-0.00194281
-0.000805049
-0.000586876
-0.00219702
-0.00273419
-0.00109147
0.00020119
-0.00119859
-0.00228491
7.15465e-05
0.00168393
-0.000228108
-0.00169183
-0.000935056
-0.000129928
0.00085718
0.000735537
-0.000965038
-0.00079525
7.08612e-05
-0.00121072
-0.00222118
-0.000576227
0.000890796
-0.000864536
-0.00375152
-0.00300104
1.06679e-06
-0.000432235
-0.00330832
-0.00472418
-0.0052905
-0.00598089
-0.00513931
-0.00213312
-0.000674691
-0.00380171
-0.00911351
-0.0133076
-0.0176293
-0.0260221
-0.0385547
-0.0499847
-0.05205
-0.0394646
-0.0127359
0.0222593
0.0562025
0.0829511
0.100122
0.11009
0.11435
0.111816
0.0992765
0.0743734
0.0395409
0.000609492
-0.0340164
-0.0585199
-0.069963
-0.070067
-0.0624303
-0.0519668
-0.0425917
-0.037237
-0.037237
-0.0425917
-0.0519668
-0.0624304
-0.0700671
-0.0699632
-0.0585202
-0.0340165
0.000609627
0.0395416
0.0743747
0.0992783
0.111818
0.114351
0.110091
0.100123
0.0829517
0.0562026
0.0222584
-0.0127384
-0.0394684
-0.0520542
-0.0499879
-0.0385558
-0.0260215
-0.017628
-0.0133066
-0.00911256
-0.00380016
-0.00067294
-0.00213239
-0.00513984
-0.00598181
-0.00529123
-0.0047247
-0.00330823
-0.000431
2.01782e-06
-0.00300206
-0.00375293
-0.000863983
0.000892468
-0.000575979
-0.00222245
-0.0012111
7.15436e-05
-0.000795458
-0.000965558
0.00073629
0.000857928
0.000917451
0.00136901
0.000363323
-0.000835736
-0.00228357
-0.00222118
-0.00026242
0.000425794
-0.000652484
-0.00242608
-0.00412638
-0.00281613
8.47971e-05
-0.00069958
-0.00424474
-0.00633939
-0.00610996
-0.00496366
-0.00345651
-0.00179757
-0.0027813
-0.00854217
-0.0165206
-0.0226227
-0.0270861
-0.0330453
-0.0411179
-0.0476444
-0.0462422
-0.032839
-0.00620151
0.0299343
0.0680119
0.099998
0.120221
0.128951
0.127998
0.119555
0.102427
0.0756099
0.0398773
-5.50848e-05
-0.0371337
-0.0650241
-0.0801202
-0.0830619
-0.0770866
-0.0671621
-0.0576923
-0.0521251
-0.0521251
-0.0576924
-0.0671622
-0.0770869
-0.0830623
-0.0801207
-0.0650248
-0.0371344
-5.54644e-05
0.0398775
0.0756108
0.102428
0.119557
0.128
0.128954
0.120223
0.0999998
0.0680129
0.0299341
-0.00620331
-0.0328422
-0.046246
-0.0476477
-0.0411198
-0.0330458
-0.0270861
-0.0226227
-0.0165205
-0.00854105
-0.00277935
-0.00179589
-0.00345592
-0.0049641
-0.00611103
-0.00634045
-0.00424482
-0.000698079
8.63498e-05
-0.00281666
-0.00412807
-0.00242681
-0.000651701
0.000427435
-0.000261804
-0.00222245
-0.00228492
-0.000835923
0.000363988
0.00137022
0.000918162
-0.00045691
-0.00100387
-0.000384002
-0.000115571
-0.001198
-0.000576227
0.000425794
-0.00197498
-0.00411521
-0.00312058
-0.00163121
-0.000636413
-0.000939421
-0.00342322
-0.00636949
-0.00755345
-0.00578974
-0.00303412
-0.00219423
-0.00348628
-0.00703928
-0.0137323
-0.0223531
-0.0299777
-0.0354954
-0.0393383
-0.0419948
-0.0420609
-0.0367214
-0.0235135
0.000531603
0.034846
0.0746378
0.110465
0.133756
0.141632
0.13629
0.122575
0.102223
0.0755262
0.0417831
0.00388698
-0.0331446
-0.0628533
-0.0811665
-0.0871894
-0.0835886
-0.0748648
-0.0658545
-0.0603336
-0.0603336
-0.0658545
-0.0748649
-0.0835887
-0.0871897
-0.081167
-0.062854
-0.0331454
0.00388645
0.041783
0.0755267
0.102224
0.122577
0.136293
0.141635
0.133759
0.110467
0.0746386
0.0348455
0.000529886
-0.0235161
-0.0367244
-0.042064
-0.0419973
-0.0393399
-0.0354962
-0.0299781
-0.0223532
-0.0137316
-0.00703778
-0.00348426
-0.00219233
-0.0030333
-0.00579051
-0.00755504
-0.00637069
-0.00342304
-0.00093783
-0.000634903
-0.00163097
-0.00312184
-0.00411698
-0.00197483
0.000427427
-0.000575983
-0.00119858
-0.000115306
-0.000383896
-0.00100443
-0.00045722
-0.00111495
-0.00235478
-0.00161452
-0.000453275
0.000200364
0.000890796
-0.000652484
-0.00411521
-0.00454095
-0.00178544
0.000280011
-0.000746545
-0.00440865
-0.00700781
-0.00746196
-0.00673027
-0.00404848
-0.00192699
-0.00355182
-0.00761582
-0.012164
-0.0178779
-0.02606
-0.0356034
-0.043014
-0.0451688
-0.0421291
-0.0349955
-0.0251462
-0.0118115
0.00910583
0.0402383
0.0797788
0.117951
0.143921
0.151523
0.142778
0.124387
0.101334
0.0752657
0.0446673
0.0101168
-0.0255373
-0.0564599
-0.0780631
-0.087967
-0.0878035
-0.0813661
-0.0736162
-0.0685734
-0.0685734
-0.0736161
-0.081366
-0.0878035
-0.0879671
-0.0780633
-0.0564602
-0.0255377
0.0101165
0.0446673
0.0752663
0.101335
0.124389
0.142781
0.151526
0.143925
0.117953
0.0797794
0.0402372
0.00910374
-0.011814
-0.0251489
-0.0349986
-0.0421326
-0.0451718
-0.0430158
-0.0356036
-0.0260593
-0.017877
-0.0121631
-0.00761439
-0.00354971
-0.00192499
-0.004048
-0.00673129
-0.00746365
-0.00700948
-0.00440866
-0.000744496
0.000282055
-0.00178539
-0.00454309
-0.00411698
-0.000651703
0.000892478
0.000201202
-0.000453101
-0.00161526
-0.00235616
-0.00111561
-0.000344705
-0.000408027
-0.000412102
-0.00117512
-0.00109181
-0.000864536
-0.00242608
-0.00312058
-0.00178544
-0.000872788
-0.00101028
-0.00361421
-0.0075286
-0.00790536
-0.00584604
-0.00399806
-0.00240038
-0.00350281
-0.00836677
-0.0143127
-0.0188311
-0.0232202
-0.0310446
-0.0418251
-0.0493341
-0.0479422
-0.037763
-0.0225287
-0.00742218
0.00688991
0.0244965
0.0505701
0.0861993
0.12279
0.148751
0.155117
0.143111
0.120172
0.0941999
0.0683577
0.040974
0.0103798
-0.0228866
-0.0542293
-0.0788022
-0.0929117
-0.0968792
-0.0935682
-0.0877533
-0.0835704
-0.0835704
-0.0877532
-0.0935682
-0.0968792
-0.0929119
-0.0788026
-0.0542299
-0.0228874
0.010379
0.0409733
0.0683575
0.0942004
0.120173
0.143114
0.155121
0.148755
0.122793
0.0862005
0.0505696
0.0244953
0.00688875
-0.0074235
-0.0225309
-0.0377667
-0.0479466
-0.0493375
-0.0418263
-0.0310437
-0.023219
-0.0188306
-0.0143125
-0.00836565
-0.00350057
-0.00239833
-0.00399738
-0.00584677
-0.00790741
-0.00753028
-0.00361361
-0.00100855
-0.000871519
-0.00178539
-0.00312184
-0.00242681
-0.000863978
-0.00109147
-0.00117518
-0.000411994
-0.000408122
-0.000344876
0.000394654
0.00177338
0.00171484
-0.00091254
-0.00273344
-0.00375152
-0.00412638
-0.00163121
0.000280011
-0.00101028
-0.00314036
-0.00638851
-0.00868144
-0.00688452
-0.00393968
-0.00223691
-0.00288048
-0.00722182
-0.0140054
-0.0207341
-0.0252974
-0.0294399
-0.0371936
-0.0474234
-0.0524514
-0.0462373
-0.0294169
-0.00775699
0.011523
0.02686
0.0411405
0.0611158
0.0900067
0.122174
0.146742
0.152852
0.140135
0.115135
0.0879454
0.0630004
0.0394424
0.0135969
-0.0160163
-0.0466525
-0.0734505
-0.0917361
-0.100302
-0.100871
-0.0976681
-0.0947489
-0.0947489
-0.097668
-0.100871
-0.100302
-0.0917362
-0.0734509
-0.0466531
-0.016017
0.013596
0.0394415
0.0629997
0.0879453
0.115136
0.140137
0.152855
0.146746
0.122177
0.0900081
0.0611159
0.0411403
0.02686
0.011523
-0.007758
-0.0294201
-0.0462422
-0.0524563
-0.0474261
-0.0371936
-0.0294388
-0.0252971
-0.0207344
-0.0140052
-0.00722006
-0.00287754
-0.00223465
-0.00393912
-0.00688591
-0.00868389
-0.00638963
-0.00313966
-0.00100854
0.000282061
-0.00163097
-0.00412807
-0.00375294
-0.0027342
-0.000912414
0.00171627
0.00177459
0.000394879
-4.62605e-05
0.000503453
0.000254378
-0.00135737
-0.00219642
-0.00300104
-0.00281613
-0.000636413
-0.000746545
-0.00361421
-0.00638851
-0.00841246
-0.0074951
-0.00441968
-0.00266901
-0.00311684
-0.00662267
-0.0122119
-0.0183535
-0.0247499
-0.0301562
-0.0355375
-0.0432344
-0.0512133
-0.0523604
-0.0417938
-0.0203964
0.00529264
0.0281619
0.0456213
0.0584214
0.0732087
0.094232
0.120294
0.142273
0.149149
0.137851
0.113008
0.0855086
0.0610302
0.0404071
0.0185723
-0.00733643
-0.0370117
-0.0657005
-0.0884063
-0.102136
-0.107494
-0.107668
-0.106497
-0.106496
-0.107668
-0.107494
-0.102136
-0.0884062
-0.0657006
-0.037012
-0.0073369
0.0185717
0.0404065
0.0610297
0.0855086
0.113009
0.137854
0.149152
0.142277
0.120297
0.0942341
0.0732097
0.0584219
0.0456219
0.0281622
0.0052918
-0.0203995
-0.0417992
-0.0523665
-0.0512178
-0.0432359
-0.0355367
-0.0301551
-0.0247496
-0.0183535
-0.0122112
-0.00662044
-0.00311403
-0.00266707
-0.00441929
-0.0074968
-0.00841486
-0.00638963
-0.00361361
-0.0007445
-0.000634907
-0.00281666
-0.00300207
-0.00219702
-0.00135761
0.000254975
0.000504169
-4.61082e-05
-0.00119482
-0.0028151
-0.00323711
-0.00226737
-0.000587328
1.06679e-06
8.47971e-05
-0.000939421
-0.00440865
-0.0075286
-0.00868144
-0.0074951
-0.00386674
-0.00182694
-0.00336877
-0.0077526
-0.0138667
-0.0185959
-0.0227689
-0.0289065
-0.0358869
-0.0420671
-0.0470145
-0.0491546
-0.0444508
-0.0300065
-0.00645723
0.0203396
0.0449427
0.0634335
0.0745596
0.0831636
0.0942472
0.111536
0.128858
0.136777
0.128618
0.106619
0.0802858
0.0568426
0.0387762
0.0209538
-0.000671927
-0.0282042
-0.0575493
-0.0838756
-0.102508
-0.112895
-0.116817
-0.117677
-0.117677
-0.116816
-0.112895
-0.102508
-0.0838755
-0.0575494
-0.0282045
-0.000672357
0.0209531
0.0387755
0.0568418
0.0802854
0.106619
0.12862
0.13678
0.128861
0.111538
0.0942494
0.0831655
0.0745611
0.0634349
0.0449436
0.0203393
-0.00645938
-0.0300109
-0.0444565
-0.04916
-0.0470178
-0.0420677
-0.0358858
-0.0289051
-0.0227683
-0.0185962
-0.0138666
-0.00775086
-0.00336608
-0.00182432
-0.00386591
-0.0074968
-0.0086839
-0.00753028
-0.00440867
-0.00093783
8.63565e-05
2.02893e-06
-0.000586864
-0.00226795
-0.00323834
-0.00281611
-0.00119521
-0.000802869
-0.0023357
-0.00288846
-0.00186407
-0.000805721
-0.000432235
-0.00069958
-0.00342322
-0.00700781
-0.00790536
-0.00688452
-0.00441968
-0.00182694
-0.00262365
-0.00689668
-0.0138035
-0.0205615
-0.0240988
-0.0278683
-0.0353923
-0.0444263
-0.0495446
-0.0481022
-0.0411245
-0.0293271
-0.0116898
0.0119132
0.0376958
0.0621892
0.0802279
0.0892111
0.0909991
0.0915251
0.0984633
0.109942
0.118937
0.11539
0.0986133
0.0748625
0.0529573
0.0366058
0.0222714
0.0046846
-0.0199522
-0.0491472
-0.0783029
-0.101671
-0.117254
-0.125341
-0.128508
-0.128508
-0.125341
-0.117254
-0.10167
-0.0783028
-0.0491473
-0.0199524
0.00468423
0.0222707
0.036605
0.0529563
0.0748617
0.098613
0.115391
0.118938
0.109943
0.0984652
0.0915271
0.0910016
0.0892138
0.0802303
0.0621909
0.0376964
0.0119127
-0.0116921
-0.0293311
-0.0411296
-0.0481075
-0.0495483
-0.0444273
-0.0353913
-0.0278669
-0.0240988
-0.0205625
-0.0138034
-0.00689453
-0.00262043
-0.00182432
-0.00441929
-0.00688591
-0.00790741
-0.00700948
-0.00342304
-0.000698074
-0.000430995
-0.000805048
-0.00186418
-0.00288942
-0.00233664
-0.000803193
0.000803633
0.00100935
6.69073e-05
-0.000580393
-0.001943
-0.00330832
-0.00424474
-0.00636949
-0.00746196
-0.00584604
-0.00393968
-0.00266901
-0.00336877
-0.00689668
-0.0119388
-0.0184064
-0.0241477
-0.0277267
-0.032722
-0.0420858
-0.052343
-0.0549727
-0.046536
-0.0311151
-0.013665
0.00578141
0.0286084
0.0536226
0.0782353
0.0964388
0.104479
0.101013
0.0926833
0.0893144
0.0943969
0.103384
0.104481
0.0933832
0.0724047
0.0512219
0.0346381
0.0219087
0.00684606
-0.0152123
-0.0442082
-0.0757791
-0.10393
-0.124917
-0.137639
-0.143389
-0.143389
-0.137639
-0.124917
-0.10393
-0.0757791
-0.0442084
-0.0152126
0.00684562
0.0219081
0.0346372
0.051221
0.0724039
0.093383
0.104481
0.103385
0.0943979
0.0893161
0.092686
0.101017
0.104483
0.0964425
0.0782378
0.0536236
0.0286084
0.00578021
-0.0136677
-0.0311197
-0.0465425
-0.0549793
-0.052347
-0.042086
-0.0327199
-0.0277251
-0.0241478
-0.0184068
-0.0119379
-0.00689453
-0.00336608
-0.00266707
-0.00393911
-0.00584676
-0.00746365
-0.00637069
-0.00424483
-0.00330824
-0.00194281
-0.000579962
6.73755e-05
0.00101004
0.000804076
0.000728651
0.000938106
0.000478345
0.000119153
-0.00205358
-0.00472418
-0.00633939
-0.00755345
-0.00673027
-0.00399806
-0.00223691
-0.00311684
-0.0077526
-0.0138035
-0.0184064
-0.0229593
-0.0279986
-0.0327533
-0.0382736
-0.0463101
-0.0534873
-0.051351
-0.0367811
-0.0157004
0.00423238
0.0226849
0.0425229
0.0649551
0.0875284
0.104423
0.110988
0.10387
0.0893618
0.0778576
0.0779374
0.0872947
0.0944476
0.090721
0.0747548
0.0552962
0.0385947
0.0267974
0.0138419
-0.00540319
-0.0334603
-0.066503
-0.0988648
-0.125011
-0.142482
-0.15093
-0.15093
-0.142482
-0.12501
-0.0988646
-0.0665029
-0.0334603
-0.00540327
0.0138417
0.0267971
0.0385943
0.0552958
0.0747545
0.0907209
0.0944476
0.0872948
0.0779376
0.0778586
0.0893643
0.103874
0.110993
0.104427
0.0875312
0.0649562
0.0425228
0.0226843
0.004231
-0.0157035
-0.0367869
-0.0513584
-0.0534933
-0.0463123
-0.0382725
-0.0327512
-0.0279974
-0.0229593
-0.0184068
-0.0138034
-0.00775086
-0.00311403
-0.00223466
-0.00399738
-0.00673129
-0.00755504
-0.00634046
-0.0047247
-0.00205338
0.000119942
0.000479045
0.000938754
0.000729027
-0.000223445
-0.00113552
-0.00147409
-0.00134541
-0.0030865
-0.0052905
-0.00610996
-0.00578974
-0.00404848
-0.00240038
-0.00288048
-0.00662267
-0.0138667
-0.0205615
-0.0241477
-0.0279986
-0.0346405
-0.042049
-0.046853
-0.0490147
-0.047945
-0.0386313
-0.0184411
0.00645311
0.0273925
0.0435586
0.0587308
0.0759709
0.0931083
0.10546
0.108293
0.097816
0.0786899
0.0609988
0.0566395
0.0660206
0.0792769
0.0837566
0.0747424
0.0582428
0.0422043
0.0309704
0.0201226
0.00391231
-0.0221072
-0.0554747
-0.0909291
-0.12164
-0.143581
-0.154686
-0.154686
-0.143581
-0.12164
-0.0909288
-0.0554744
-0.022107
0.0039125
0.0201227
0.0309704
0.0422042
0.0582427
0.0747423
0.0837564
0.0792763
0.0660195
0.0566382
0.0609982
0.078691
0.0978191
0.108297
0.105464
0.0931113
0.0759725
0.0587315
0.0435594
0.0273932
0.00645265
-0.0184444
-0.0386374
-0.0479518
-0.0490197
-0.0468553
-0.0420489
-0.0346392
-0.0279975
-0.0241478
-0.0205625
-0.0138666
-0.00662044
-0.00287754
-0.00239833
-0.004048
-0.00579052
-0.00611102
-0.00529122
-0.00308648
-0.00134489
-0.00147393
-0.00113569
-0.000223513
-8.3961e-05
-0.00124307
-0.0027525
-0.00368198
-0.0051396
-0.00598089
-0.00496366
-0.00303412
-0.00192699
-0.00350281
-0.00722182
-0.0122119
-0.0185959
-0.0240988
-0.0277267
-0.0327533
-0.042049
-0.0519106
-0.0545736
-0.0490033
-0.0389568
-0.023697
-0.000419061
0.0267564
0.0495587
0.0654252
0.0777296
0.0903834
0.101761
0.108639
0.107045
0.0936232
0.0709141
0.0478389
0.037763
0.0445354
0.0606868
0.0714142
0.0685223
0.0546102
0.0385248
0.0264814
0.0165555
0.00260835
-0.0211091
-0.0541752
-0.0918094
-0.126538
-0.152595
-0.16628
-0.16628
-0.152595
-0.126538
-0.0918092
-0.0541752
-0.0211091
0.00260825
0.0165553
0.0264811
0.0385244
0.0546097
0.0685218
0.0714135
0.0606855
0.0445334
0.0377607
0.0478375
0.0709146
0.0936259
0.10705
0.108644
0.101765
0.0903866
0.077732
0.0654274
0.0495608
0.0267573
-0.00042062
-0.0237015
-0.0389632
-0.0490103
-0.0545798
-0.0519141
-0.0420489
-0.0327512
-0.0277251
-0.0240988
-0.0185962
-0.0122112
-0.00722006
-0.00350056
-0.00192499
-0.00303329
-0.0049641
-0.00598181
-0.00514019
-0.00368217
-0.0027526
-0.00124297
-8.38179e-05
5.52006e-05
-0.00110716
-0.00312848
-0.00445392
-0.00539746
-0.00513931
-0.00345651
-0.00219423
-0.00355182
-0.00836677
-0.0140054
-0.0183535
-0.0227689
-0.0278683
-0.032722
-0.0382736
-0.046853
-0.0545736
-0.0525325
-0.0397607
-0.0233815
-0.00648734
0.0148937
0.0407329
0.0639602
0.0796272
0.0896488
0.0982399
0.104918
0.107925
0.104262
0.0912095
0.0689418
0.0441113
0.0299689
0.0335934
0.0507796
0.0663466
0.0689672
0.0575886
0.0408001
0.0265925
0.015761
0.00262905
-0.0195251
-0.0523171
-0.0918247
-0.130266
-0.160276
-0.176498
-0.176498
-0.160276
-0.130266
-0.0918247
-0.0523172
-0.0195252
0.00262884
0.0157607
0.0265922
0.0407998
0.0575884
0.068967
0.0663461
0.0507784
0.0335914
0.0299668
0.04411
0.0689424
0.0912121
0.104266
0.10793
0.104923
0.0982441
0.0896521
0.0796298
0.0639621
0.0407335
0.0148926
-0.00649013
-0.0233859
-0.0397671
-0.0525402
-0.0545798
-0.0468553
-0.0382725
-0.0327199
-0.0278669
-0.0227683
-0.0183535
-0.0140052
-0.00836565
-0.00354971
-0.00219233
-0.00345592
-0.00513985
-0.00539815
-0.00445436
-0.00312867
-0.00110687
5.54982e-05
-0.00076993
-0.00283295
-0.00447684
-0.00446489
-0.00346217
-0.00213312
-0.00179757
-0.00348628
-0.00761582
-0.0143127
-0.0207341
-0.0247499
-0.0289065
-0.0353923
-0.0420858
-0.0463101
-0.0490147
-0.0490033
-0.0397607
-0.0201196
0.00100145
0.017453
0.0342265
0.0553582
0.0757451
0.0883148
0.093135
0.0950593
0.0956452
0.0946345
0.090069
0.0797661
0.0615596
0.0391833
0.0241602
0.0261797
0.0446375
0.0654981
0.0749971
0.0681575
0.0523162
0.0366209
0.0247718
0.0121839
-0.00825709
-0.0401126
-0.0805487
-0.12183
-0.155188
-0.173657
-0.173657
-0.155187
-0.121829
-0.0805485
-0.0401125
-0.00825691
0.0121841
0.024772
0.0366212
0.0523166
0.068158
0.0749977
0.0654983
0.0446369
0.0261781
0.0241583
0.039182
0.0615595
0.0797674
0.0900714
0.0946377
0.0956488
0.095063
0.0931384
0.0883178
0.0757472
0.055359
0.0342264
0.0174526
0.00100031
-0.0201232
-0.0397671
-0.0490103
-0.0490197
-0.0463123
-0.042086
-0.0353913
-0.0289052
-0.0247496
-0.0207344
-0.0143125
-0.00761439
-0.00348426
-0.00179589
-0.00213238
-0.0034622
-0.00446541
-0.00447759
-0.00283326
-0.000769869
-0.00164605
-0.00440457
-0.00532021
-0.00408353
-0.00181664
-0.000674691
-0.0027813
-0.00703928
-0.012164
-0.0188311
-0.0252974
-0.0301562
-0.0358869
-0.0444263
-0.052343
-0.0534873
-0.047945
-0.0389568
-0.0233815
0.00100145
0.0259546
0.0433605
0.0571916
0.0741573
0.0914171
0.100133
0.0984302
0.0919104
0.0846004
0.0779111
0.0709209
0.061892
0.0471777
0.0274032
0.0115905
0.0111594
0.0291234
0.0540523
0.0704072
0.0695481
0.0562885
0.0403343
0.0279145
0.0161578
-0.00199869
-0.0318063
-0.0717466
-0.114494
-0.150173
-0.170363
-0.170363
-0.150173
-0.114494
-0.0717464
-0.031806
-0.00199842
0.0161581
0.0279148
0.0403347
0.0562891
0.0695487
0.0704077
0.0540522
0.0291223
0.0111573
0.011588
0.0274011
0.0471764
0.0618915
0.0709213
0.0779124
0.0846027
0.0919138
0.0984344
0.100138
0.0914207
0.0741594
0.057193
0.0433621
0.0259559
0.00100033
-0.0233859
-0.0389632
-0.0479518
-0.0534933
-0.052347
-0.0444274
-0.0358859
-0.0301551
-0.0252971
-0.0188306
-0.0121631
-0.00703777
-0.00277934
-0.000672933
-0.00181585
-0.00408392
-0.00532141
-0.0044055
-0.00164627
-0.00110798
-0.00218682
-0.0021184
-0.00230022
-0.00238006
-0.00380171
-0.00854217
-0.0137323
-0.0178779
-0.0232202
-0.0294399
-0.0355375
-0.0420671
-0.0495446
-0.0549727
-0.051351
-0.0386313
-0.023697
-0.00648734
0.017453
0.0433605
0.0618852
0.0742254
0.0882407
0.103537
0.110485
0.105087
0.0929465
0.0801212
0.0695038
0.0606114
0.0521956
0.0398723
0.0215679
0.00369932
-0.00174651
0.0121249
0.0372756
0.0578053
0.0616871
0.0505004
0.0337307
0.0196091
0.00752257
-0.00920297
-0.036986
-0.0759195
-0.119281
-0.156573
-0.178061
-0.178061
-0.156573
-0.119281
-0.0759195
-0.036986
-0.009203
0.00752253
0.019609
0.0337306
0.0505004
0.0616872
0.0578051
0.0372748
0.0121232
-0.00174901
0.00369671
0.0215657
0.0398708
0.0521946
0.060611
0.0695043
0.0801232
0.0929502
0.105092
0.110491
0.103542
0.088244
0.0742275
0.0618873
0.0433621
0.0174526
-0.00649012
-0.0237015
-0.0386374
-0.0513584
-0.0549793
-0.0495483
-0.0420678
-0.0355367
-0.0294388
-0.023219
-0.017877
-0.0137316
-0.00854105
-0.00380016
-0.00237896
-0.00229985
-0.00211868
-0.00218736
-0.0011082
0.000561908
0.00278002
0.00354492
4.50675e-05
-0.00418171
-0.00911351
-0.0165206
-0.0223531
-0.02606
-0.0310446
-0.0371936
-0.0432344
-0.0470145
-0.0481022
-0.046536
-0.0367811
-0.0184411
-0.000419061
0.0148937
0.0342265
0.0571916
0.0742254
0.0830115
0.0914191
0.102524
0.107527
0.100609
0.0864309
0.0722888
0.0620689
0.0550205
0.0501648
0.0425405
0.0281572
0.0103593
0.000812771
0.0097718
0.0331385
0.056117
0.0637075
0.0542266
0.0358568
0.0186866
0.00439238
-0.0125051
-0.0392563
-0.0773946
-0.121124
-0.159629
-0.182157
-0.182157
-0.15963
-0.121124
-0.0773947
-0.0392564
-0.0125052
0.00439229
0.0186865
0.0358568
0.0542268
0.0637078
0.0561171
0.033138
0.00977065
0.000811158
0.0103579
0.0281563
0.04254
0.0501642
0.0550201
0.062069
0.07229
0.0864338
0.100613
0.107533
0.102529
0.0914225
0.0830139
0.0742275
0.057193
0.0342264
0.0148926
-0.000420649
-0.0184444
-0.0367869
-0.0465425
-0.0481075
-0.0470178
-0.0432358
-0.0371936
-0.0310437
-0.0260593
-0.0223532
-0.0165205
-0.00911257
-0.00418066
4.63646e-05
0.00354644
0.00278085
0.000562033
0.00110498
0.00477217
0.00559713
-0.000153585
-0.00651725
-0.0133076
-0.0226227
-0.0299777
-0.0356034
-0.0418251
-0.0474234
-0.0512133
-0.0491546
-0.0411245
-0.0311151
-0.0157004
0.00645311
0.0267564
0.0407329
0.0553582
0.0741573
0.0882407
0.0914191
0.0909663
0.0940889
0.0944663
0.0853016
0.0694253
0.0548004
0.0460776
0.0420771
0.0418781
0.0402154
0.0319261
0.0170623
0.00616907
0.0117076
0.0338797
0.059808
0.0724269
0.0665474
0.0482867
0.0290129
0.0126689
-0.00441427
-0.0299061
-0.0665054
-0.109624
-0.148403
-0.171431
-0.171431
-0.148403
-0.109624
-0.0665054
-0.0299061
-0.00441415
0.0126691
0.0290133
0.0482872
0.0665481
0.0724277
0.0598087
0.0338798
0.0117071
0.00616826
0.0170617
0.0319259
0.0402152
0.0418774
0.0420759
0.0460764
0.0547997
0.0694262
0.0853041
0.0944701
0.0940927
0.0909696
0.0914224
0.0882439
0.0741594
0.0553591
0.0407336
0.0267573
0.00645266
-0.0157034
-0.0311197
-0.0411296
-0.04916
-0.0512178
-0.0474262
-0.0418263
-0.0356036
-0.0299781
-0.0226227
-0.0133066
-0.00651608
-0.000151857
0.00559969
0.00477381
0.00110527
-0.000689933
0.000572098
0.000221589
-0.00595007
-0.0115021
-0.0176293
-0.0270861
-0.0354954
-0.043014
-0.0493341
-0.0524514
-0.0523604
-0.0444508
-0.0293271
-0.013665
0.00423238
0.0273925
0.0495587
0.0639602
0.0757451
0.0914171
0.103537
0.102524
0.0940889
0.0889176
0.0841498
0.0725197
0.0542189
0.0375124
0.0278424
0.0241233
0.0256598
0.0273067
0.0236941
0.0117604
0.000332371
0.0028799
0.0237696
0.0526847
0.0713728
0.0710849
0.0551882
0.0355289
0.0181533
0.00153773
-0.0219048
-0.0558286
-0.0969915
-0.134847
-0.157674
-0.157674
-0.134847
-0.0969915
-0.0558285
-0.0219045
0.00153809
0.0181538
0.0355295
0.055189
0.0710857
0.0713736
0.0526853
0.0237694
0.00287911
0.00033133
0.0117596
0.0236935
0.0273057
0.0256582
0.024121
0.0278399
0.0375103
0.0542181
0.0725208
0.0841523
0.0889209
0.0940928
0.102529
0.103542
0.0914207
0.0757472
0.0639621
0.0495608
0.0273932
0.00423103
-0.0136677
-0.0293312
-0.0444566
-0.0523665
-0.0524563
-0.0493376
-0.0430158
-0.0354962
-0.0270861
-0.017628
-0.0115009
-0.0059487
0.0002238
0.000573289
-0.000689962
-0.00377719
-0.00770171
-0.0110989
-0.0176856
-0.0217898
-0.0260221
-0.0330453
-0.0393383
-0.0451688
-0.0479422
-0.0462373
-0.0417938
-0.0300065
-0.0116898
0.00578141
0.0226849
0.0435586
0.0654252
0.0796272
0.0883148
0.100133
0.110485
0.107527
0.0944663
0.0841498
0.0773881
0.0667015
0.0488834
0.0317938
0.0213053
0.0170246
0.0183073
0.0205229
0.0188941
0.0077091
-0.00596768
-0.00884836
0.00762005
0.0360731
0.0583261
0.0622513
0.0481107
0.027439
0.00808138
-0.00909497
-0.0311791
-0.0624778
-0.101235
-0.137522
-0.159719
-0.159719
-0.137522
-0.101235
-0.0624779
-0.0311791
-0.00909488
0.00808154
0.0274392
0.048111
0.0622517
0.0583264
0.036073
0.00761926
-0.00884959
-0.00596892
0.00770822
0.0188935
0.020522
0.0183057
0.0170224
0.0213028
0.0317916
0.0488824
0.066702
0.0773897
0.0841523
0.0944702
0.107533
0.110491
0.100138
0.0883178
0.0796298
0.0654273
0.0435594
0.0226843
0.00578019
-0.0116921
-0.0300109
-0.0417992
-0.0462422
-0.0479466
-0.0451718
-0.0393399
-0.0330458
-0.0260215
-0.0217894
-0.0176854
-0.011098
-0.00770148
-0.00377763
-0.00662387
-0.0162848
-0.024026
-0.0320338
-0.0359646
-0.0385547
-0.0411179
-0.0419948
-0.0421291
-0.037763
-0.0294169
-0.0203964
-0.00645723
0.0119132
0.0286084
0.0425229
0.0587308
0.0777296
0.0896488
0.093135
0.0984302
0.105087
0.100609
0.0853016
0.0725197
0.0667015
0.0604428
0.0468017
0.0324213
0.023134
0.019773
0.0213625
0.0241522
0.0241711
0.0138475
-0.00168173
-0.0102805
0.000478657
0.0262736
0.0503433
0.0573636
0.0446289
0.0223882
0.000192223
-0.0187728
-0.0404643
-0.0696223
-0.10587
-0.140229
-0.16149
-0.16149
-0.140229
-0.10587
-0.0696226
-0.0404645
-0.0187728
0.000192178
0.0223882
0.044629
0.0573637
0.0503433
0.0262732
0.000477688
-0.0102817
-0.00168268
0.0138471
0.0241711
0.0241518
0.0213617
0.0197716
0.0231324
0.0324199
0.046801
0.060443
0.066702
0.0725209
0.0853042
0.100613
0.105092
0.0984344
0.0931384
0.089652
0.077732
0.0587315
0.0425228
0.0286083
0.0119127
-0.00645937
-0.0203995
-0.0294201
-0.0377667
-0.0421326
-0.0419973
-0.0411198
-0.0385558
-0.0359657
-0.0320352
-0.0240265
-0.0162855
-0.00662457
-0.00816636
-0.0219856
-0.0335411
-0.0430548