/*--------------------------------*- C++ -*----------------------------------*\
  =========                 |
  \\      /  F ield         | OpenFOAM: The Open Source CFD Toolbox
   \\    /   O peration     | Website:  https://openfoam.org
    \\  /    A nd           | Version:  10
     \\/     M anipulation  |
\*---------------------------------------------------------------------------*/
FoamFile
{
    format      ascii;
    class       volScalarField;
    location    "48";
    object      h;
}
// * * * * * * * * * * * * * * * * * * * * * * * * * * * * * * * * * * * * * //

dimensions      [0 1 0 0 0 0 0];

internalField   nonuniform List<scalar> 
10000
(
-0.00244185
-0.00629324
-0.0078225
-0.00746896
-0.00704092
-0.00825854
-0.011312
-0.0146169
-0.0160403
-0.0145677
-0.0109765
-0.0070373
-0.00400967
-0.00198486
-0.000449721
0.000831169
0.00153
0.00126053
3.44655e-05
-0.00179253
-0.00374601
-0.00533191
-0.00629946
-0.00676022
-0.00699039
-0.00700134
-0.00629649
-0.00463481
-0.00256307
-0.000687153
0.00113182
0.0032682
0.00551519
0.00719525
0.00813807
0.00886277
0.00947481
0.00944861
0.00872669
0.0078727
0.00700025
0.00579934
0.00436577
0.00310033
0.00200417
0.000898276
-7.83082e-05
-0.000728554
-0.00116782
-0.00146712
-0.00146711
-0.00116779
-0.000728503
-7.82664e-05
0.000898291
0.00200413
0.00310021
0.00436555
0.00579902
0.00699979
0.0078721
0.008726
0.00944787
0.00947401
0.00886198
0.00813738
0.00719474
0.00551486
0.00326809
0.00113199
-0.000686659
-0.00256231
-0.00463387
-0.00629539
-0.00700007
-0.00698904
-0.0067589
-0.00629824
-0.00533077
-0.00374497
-0.0017916
3.52732e-05
0.00126123
0.00153056
0.000831567
-0.000449482
-0.00198471
-0.00400958
-0.00703736
-0.0109769
-0.0145684
-0.0160412
-0.0146178
-0.0113127
-0.00825913
-0.00704163
-0.00746992
-0.00782361
-0.00629416
-0.00244222
-0.00629324
-0.0159319
-0.0189723
-0.0168117
-0.0148347
-0.0181097
-0.0272125
-0.0374985
-0.0426579
-0.03964
-0.0305895
-0.0205469
-0.0131224
-0.0085338
-0.00523845
-0.00249403
-0.00120441
-0.00248906
-0.00634193
-0.011744
-0.017353
-0.021787
-0.0243551
-0.0254396
-0.0258578
-0.0256477
-0.02338
-0.0183502
-0.0121164
-0.00639858
-0.000773405
0.0058436
0.0128338
0.0182844
0.0217046
0.024528
0.0270126
0.0276679
0.0263109
0.0245033
0.0225474
0.0195739
0.0158641
0.012542
0.00961714
0.00661111
0.00393295
0.00213652
0.000914208
8.11602e-05
8.1186e-05
0.000914297
0.00213665
0.00393304
0.00661112
0.00961701
0.0125416
0.0158635
0.0195729
0.022546
0.0245016
0.026309
0.0276658
0.0270104
0.0245258
0.0217027
0.018283
0.0128329
0.00584326
-0.000772992
-0.00639736
-0.0121145
-0.0183479
-0.0233773
-0.0256447
-0.0258545
-0.0254365
-0.0243522
-0.0217844
-0.0173505
-0.0117418
-0.00634001
-0.00248736
-0.00120297
-0.00249296
-0.00523774
-0.00853328
-0.013122
-0.0205468
-0.0305903
-0.0396417
-0.0426601
-0.0375005
-0.0272139
-0.0181108
-0.0148361
-0.0168138
-0.018975
-0.0159342
-0.00629416
-0.0078225
-0.0189723
-0.0201771
-0.0139419
-0.00902395
-0.0135721
-0.028542
-0.0465474
-0.0574388
-0.0561281
-0.0456308
-0.0335624
-0.0254469
-0.0215352
-0.0193351
-0.0175314
-0.0173497
-0.0204896
-0.0270316
-0.0354928
-0.0438873
-0.0501703
-0.0533755
-0.0542891
-0.054219
-0.0532016
-0.0490968
-0.0408359
-0.030728
-0.0212806
-0.0117693
-0.000550902
0.0113754
0.0212177
0.0282575
0.0344959
0.040196
0.0431457
0.0430262
0.0420382
0.0405632
0.0373382
0.0328084
0.0286011
0.0247429
0.0206136
0.0168644
0.0143049
0.0125349
0.0113317
0.0113318
0.0125349
0.014305
0.0168644
0.0206134
0.0247426
0.0286003
0.0328071
0.0373365
0.040561
0.0420356
0.0430232
0.0431426
0.0401928
0.0344928
0.0282549
0.0212157
0.0113742
-0.00055141
-0.0117689
-0.0212791
-0.0307258
-0.0408333
-0.0490938
-0.0531982
-0.0542154
-0.0542858
-0.0533725
-0.0501676
-0.0438848
-0.0354906
-0.0270296
-0.0204877
-0.017348
-0.0175301
-0.0193341
-0.0215343
-0.0254461
-0.0335619
-0.0456313
-0.0561298
-0.057441
-0.0465491
-0.0285426
-0.0135721
-0.00902443
-0.0139437
-0.02018
-0.018975
-0.00782362
-0.00746896
-0.0168117
-0.0139419
-0.0024964
0.00588276
0.000483592
-0.0199786
-0.0459
-0.063931
-0.0670906
-0.058701
-0.0480817
-0.0421599
-0.0412474
-0.042146
-0.0429573
-0.0449012
-0.0500353
-0.0586132
-0.0689408
-0.0786479
-0.0852952
-0.0878564
-0.0876398
-0.0863601
-0.0840198
-0.0781054
-0.0673465
-0.0544313
-0.0421878
-0.0295806
-0.0146328
0.00137177
0.0152916
0.02636
0.0366886
0.0463742
0.0528512
0.0556863
0.0572211
0.0577588
0.0558714
0.0521268
0.0483377
0.0445419
0.0401792
0.0360947
0.0332116
0.0311611
0.0297821
0.029782
0.0311611
0.0332116
0.0360945
0.0401786
0.044541
0.0483364
0.0521249
0.0558689
0.0577559
0.0572177
0.0556826
0.0528475
0.0463707
0.0366853
0.0263573
0.0152897
0.00137059
-0.0146332
-0.0295802
-0.0421866
-0.0544295
-0.0673444
-0.0781031
-0.0840172
-0.0863576
-0.0876376
-0.0878544
-0.0852935
-0.0786463
-0.0689393
-0.0586118
-0.0500339
-0.0448998
-0.0429561
-0.0421451
-0.0412465
-0.0421589
-0.0480809
-0.0587011
-0.0670917
-0.0639324
-0.0459003
-0.0199772
0.000485951
0.00588449
-0.0024965
-0.0139438
-0.0168139
-0.00746995
-0.00704092
-0.0148347
-0.00902395
0.00588276
0.0162131
0.00952344
-0.0156808
-0.048288
-0.0727227
-0.0805464
-0.0749812
-0.0662217
-0.0621805
-0.0634973
-0.0667459
-0.0696197
-0.0730643
-0.0792062
-0.0884571
-0.0990804
-0.108523
-0.114192
-0.115178
-0.113307
-0.110579
-0.106933
-0.0998405
-0.0880681
-0.0743254
-0.0612678
-0.0475538
-0.0311332
-0.0134308
0.00265663
0.0165683
0.0301054
0.0430645
0.0529643
0.0593379
0.0641557
0.0674764
0.0679422
0.0661834
0.06384
0.0609268
0.0571174
0.0533788
0.050591
0.0485204
0.0471531
0.047153
0.0485201
0.0505905
0.0533779
0.0571161
0.0609251
0.0638377
0.0661805
0.0679389
0.0674728
0.0641519
0.059334
0.0529606
0.0430612
0.0301026
0.0165662
0.00265536
-0.0134314
-0.0311331
-0.0475531
-0.0612666
-0.0743239
-0.0880665
-0.0998391
-0.106932
-0.110578
-0.113306
-0.115177
-0.114191
-0.108523
-0.0990796
-0.0884563
-0.0792054
-0.0730635
-0.0696191
-0.0667456
-0.0634969
-0.0621799
-0.0662212
-0.0749814
-0.0805473
-0.0727233
-0.0482871
-0.0156777
0.00952779
0.0162169
0.00588446
-0.00902448
-0.0148362
-0.00704167
-0.00825854
-0.0181097
-0.0135721
0.000483592
0.00952344
0.000400738
-0.0283835
-0.0650067
-0.0929079
-0.102838
-0.0977085
-0.0879316
-0.0821218
-0.0817529
-0.08389
-0.08619
-0.0891411
-0.0945939
-0.103026
-0.112777
-0.121196
-0.125617
-0.125302
-0.122399
-0.118991
-0.114869
-0.107857
-0.0970791
-0.0849521
-0.0735025
-0.0611721
-0.0461813
-0.0299376
-0.0145651
-0.00013608
0.014523
0.0288479
0.0408701
0.0502401
0.05815
0.0642839
0.0675532
0.0685708
0.0684811
0.0672079
0.0647442
0.0620756
0.0598958
0.0581477
0.0570061
0.0570058
0.0581469
0.0598946
0.0620737
0.0647418
0.0672049
0.0684777
0.068567
0.0675491
0.0642798
0.0581461
0.0502365
0.040867
0.0288456
0.0145214
-0.000137065
-0.0145654
-0.0299372
-0.0461805
-0.0611711
-0.0735013
-0.0849507
-0.0970779
-0.107856
-0.114868
-0.11899
-0.122398
-0.125301
-0.125616
-0.121195
-0.112776
-0.103025
-0.0945934
-0.0891406
-0.0861899
-0.0838903
-0.0817533
-0.0821222
-0.0879321
-0.0977095
-0.10284
-0.0929088
-0.0650059
-0.0283803
0.00040545
0.00952779
0.000485921
-0.0135721
-0.0181108
-0.00825917
-0.011312
-0.0272125
-0.028542
-0.0199786
-0.0156808
-0.0283835
-0.059318
-0.0967369
-0.12438
-0.13292
-0.124869
-0.110269
-0.0981475
-0.0913468
-0.0881822
-0.0867703
-0.0871291
-0.0905413
-0.0974048
-0.106127
-0.11393
-0.118085
-0.11797
-0.11568
-0.113103
-0.109796
-0.104198
-0.0960898
-0.087376
-0.0791925
-0.0699663
-0.0585425
-0.0461943
-0.0339614
-0.0212354
-0.00762813
0.00595365
0.0184039
0.0296714
0.0399693
0.0485639
0.0547823
0.0591332
0.0620483
0.0632783
0.0631063
0.0623981
0.0615471
0.0606354
0.0600009
0.0600005
0.0606341
0.0615449
0.062395
0.0631026
0.063274
0.0620437
0.0591284
0.0547777
0.0485597
0.0399656
0.0296684
0.0184018
0.00595245
-0.00762857
-0.0212353
-0.0339607
-0.0461931
-0.0585412
-0.069965
-0.0791913
-0.0873746
-0.0960885
-0.104197
-0.109795
-0.113102
-0.115679
-0.117969
-0.118084
-0.113929
-0.106126
-0.097404
-0.0905407
-0.0871288
-0.0867704
-0.0881828
-0.0913479
-0.0981488
-0.11027
-0.124871
-0.132923
-0.124382
-0.0967375
-0.0593164
-0.0283803
-0.0156777
-0.0199772
-0.0285426
-0.027214
-0.0113127
-0.0146169
-0.0374985
-0.0465474
-0.0459
-0.048288
-0.0650067
-0.0967369
-0.132484
-0.157406
-0.162736
-0.150419
-0.129423
-0.108699
-0.0927287
-0.0816776
-0.0746582
-0.0713646
-0.0722826
-0.0775666
-0.0856549
-0.0936812
-0.0989257
-0.100792
-0.100904
-0.100648
-0.099245
-0.0958484
-0.0911204
-0.0863484
-0.0816753
-0.0757519
-0.0683436
-0.060586
-0.0523912
-0.0424471
-0.031149
-0.0196849
-0.00809654
0.00401186
0.0159159
0.0265428
0.0357268
0.0438013
0.0504181
0.055101
0.0582901
0.0605679
0.0619446
0.0625407
0.0627622
0.0627615
0.0625387
0.0619414
0.0605638
0.0582853
0.0550958
0.0504128
0.0437962
0.0357223
0.0265391
0.0159131
0.00400997
-0.00809746
-0.0196849
-0.0311483
-0.0424461
-0.05239
-0.0605845
-0.068342
-0.0757506
-0.0816741
-0.086347
-0.0911189
-0.095847
-0.0992436
-0.100647
-0.100902
-0.10079
-0.0989242
-0.09368
-0.0856539
-0.0775659
-0.072282
-0.0713643
-0.0746582
-0.0816782
-0.0927299
-0.108701
-0.129425
-0.150422
-0.162739
-0.157409
-0.132486
-0.0967374
-0.0650058
-0.048287
-0.0459002
-0.0465491
-0.0375006
-0.0146179
-0.0160403
-0.0426579
-0.0574388
-0.063931
-0.0727227
-0.0929079
-0.12438
-0.157406
-0.179378
-0.182512
-0.167861
-0.142511
-0.11463
-0.0901703
-0.0714359
-0.0588963
-0.0521034
-0.0506575
-0.0544113
-0.0619044
-0.0703473
-0.0772279
-0.0819407
-0.0853668
-0.0881195
-0.089012
-0.08793
-0.0864536
-0.0851479
-0.083139
-0.079538
-0.0751946
-0.0711533
-0.0663637
-0.0589885
-0.0501176
-0.0411325
-0.0310063
-0.0188431
-0.00607728
0.00607911
0.0180048
0.029823
0.040492
0.0493279
0.056746
0.0628797
0.0673047
0.0700582
0.0714731
0.0714724
0.0700559
0.067301
0.062875
0.0567407
0.0493225
0.0404868
0.0298184
0.0180011
0.0060765
-0.00607882
-0.0188437
-0.0310061
-0.0411315
-0.0501162
-0.058987
-0.0663622
-0.0711517
-0.0751931
-0.0795367
-0.0831378
-0.0851465
-0.086452
-0.0879285
-0.0890107
-0.0881182
-0.0853654
-0.0819395
-0.0772271
-0.0703469
-0.0619043
-0.0544112
-0.0506573
-0.0521032
-0.0588963
-0.0714362
-0.0901712
-0.114631
-0.142512
-0.167863
-0.182515
-0.179381
-0.157409
-0.124382
-0.0929087
-0.0727232
-0.0639323
-0.057441
-0.0426601
-0.0160413
-0.0145677
-0.03964
-0.0561281
-0.0670906
-0.0805464
-0.102838
-0.13292
-0.162736
-0.182512
-0.185825
-0.172587
-0.14725
-0.116366
-0.0867491
-0.0627479
-0.0463298
-0.0371173
-0.0338842
-0.0360746
-0.042342
-0.0502211
-0.0577934
-0.0646077
-0.0707814
-0.0760271
-0.078815
-0.0797016
-0.0809749
-0.0824244
-0.0822325
-0.0800701
-0.0777465
-0.0762107
-0.0737402
-0.0683132
-0.0615496
-0.0549006
-0.0464719
-0.0349731
-0.0222365
-0.00934862
0.00459062
0.0194917
0.0338175
0.0467877
0.0586331
0.068909
0.076743
0.0820018
0.0848019
0.0848011
0.0819995
0.0767395
0.0689047
0.0586285
0.0467831
0.0338134
0.0194884
0.00458834
-0.00934985
-0.0222368
-0.0349725
-0.0464707
-0.054899
-0.0615479
-0.0683116
-0.0737385
-0.076209
-0.0777449
-0.0800688
-0.0822311
-0.0824229
-0.0809734
-0.0797004
-0.0788143
-0.0760267
-0.0707812
-0.0646079
-0.0577941
-0.0502221
-0.0423431
-0.0360754
-0.0338846
-0.0371173
-0.0463296
-0.0627479
-0.0867497
-0.116367
-0.147251
-0.172588
-0.185827
-0.182514
-0.162739
-0.132923
-0.10284
-0.0805472
-0.0670917
-0.0561298
-0.0396417
-0.0145684
-0.0109765
-0.0305895
-0.0456308
-0.058701
-0.0749812
-0.0977085
-0.124869
-0.150419
-0.167861
-0.172587
-0.16335
-0.141588
-0.111642
-0.080428
-0.0540322
-0.0358679
-0.0257693
-0.0217697
-0.0226659
-0.0271569
-0.0333331
-0.0402168
-0.0477178
-0.0553572
-0.0619889
-0.0659449
-0.0684031
-0.0720434
-0.0759318
-0.077406
-0.076616
-0.0759922
-0.076304
-0.07543
-0.0715404
-0.0665733
-0.0618965
-0.0551185
-0.0448145
-0.0329368
-0.0202099
-0.00531815
0.0114453
0.0282858
0.0445102
0.0600909
0.0739618
0.0848488
0.0924452
0.0965625
0.0965619
0.0924435
0.0848463
0.0739588
0.0600878
0.0445073
0.0282835
0.0114438
-0.00531885
-0.0202098
-0.032936
-0.0448133
-0.0551169
-0.0618948
-0.0665715
-0.0715387
-0.0754284
-0.0763023
-0.0759905
-0.0766145
-0.0774047
-0.0759306
-0.0720425
-0.0684028
-0.0659454
-0.0619898
-0.0553583
-0.0477193
-0.0402187
-0.0333352
-0.0271587
-0.0226671
-0.0217702
-0.0257693
-0.0358675
-0.0540321
-0.0804283
-0.111643
-0.141589
-0.163351
-0.172588
-0.167863
-0.150422
-0.12487
-0.0977095
-0.0749814
-0.0587011
-0.0456314
-0.0305903
-0.0109769
-0.0070373
-0.0205469
-0.0335624
-0.0480817
-0.0662217
-0.0879316
-0.110269
-0.129423
-0.142511
-0.14725
-0.141588
-0.124145
-0.0968715
-0.0661294
-0.0393474
-0.021176
-0.0117479
-0.00850737
-0.0092921
-0.0126106
-0.0170584
-0.0226505
-0.0298257
-0.0377474
-0.0445725
-0.0488264
-0.0523557
-0.0579131
-0.0640083
-0.0673437
-0.0684423
-0.0699411
-0.0721963
-0.0728591
-0.0706065
-0.0674599
-0.0644787
-0.0592023
-0.0504056
-0.0399911
-0.0281966
-0.0134863
0.003638
0.0213277
0.0391685
0.0569067
0.0729383
0.0857213
0.0948726
0.0999095
0.0999093
0.0948721
0.0857206
0.0729375
0.056906
0.0391681
0.0213277
0.00363838
-0.0134856
-0.0281956
-0.0399898
-0.0504042
-0.0592008
-0.0644773
-0.0674584
-0.070605
-0.0728575
-0.0721947
-0.0699397
-0.0684411
-0.0673428
-0.064008
-0.0579132
-0.0523565
-0.048828
-0.0445745
-0.0377495
-0.0298278
-0.0226527
-0.0170604
-0.012612
-0.00929269
-0.00850722
-0.0117474
-0.0211754
-0.039347
-0.0661295
-0.0968721
-0.124146
-0.141589
-0.147251
-0.142512
-0.129425
-0.11027
-0.0879321
-0.0662212
-0.0480809
-0.033562
-0.0205468
-0.00703738
-0.00400967
-0.0131224
-0.0254469
-0.0421599
-0.0621805
-0.0821218
-0.0981475
-0.108699
-0.11463
-0.116366
-0.111642
-0.0968715
-0.071757
-0.0416866
-0.0150065
0.00258207
0.0104091
0.0113295
0.0087697
0.00483777
0.000759016
-0.00424118
-0.0111661
-0.0189219
-0.0251652
-0.0289628
-0.0328215
-0.0393179
-0.0467614
-0.0516694
-0.0548648
-0.0588076
-0.0631593
-0.0654962
-0.0652033
-0.0640985
-0.0626438
-0.058673
-0.0514644
-0.0427814
-0.0323969
-0.0188082
-0.00276279
0.0139748
0.0313824
0.049094
0.0651838
0.0780765
0.087477
0.0927304
0.0927308
0.0874779
0.0780779
0.0651857
0.0490962
0.0313847
0.0139771
-0.00276058
-0.0188062
-0.0323953
-0.0427799
-0.0514631
-0.0586718
-0.0626427
-0.0640973
-0.0652021
-0.0654951
-0.0631584
-0.0588069
-0.0548645
-0.0516696
-0.0467623
-0.0393194
-0.0328234
-0.0289651
-0.0251676
-0.018924
-0.0111679
-0.00424269
0.00075796
0.00483743
0.0087702
0.0113306
0.0104103
0.00258302
-0.0150059
-0.0416866
-0.0717574
-0.0968721
-0.111643
-0.116367
-0.114631
-0.108701
-0.0981488
-0.0821222
-0.0621799
-0.0421589
-0.0254461
-0.013122
-0.0040096
-0.00198486
-0.0085338
-0.0215352
-0.0412474
-0.0634973
-0.0817529
-0.0913468
-0.0927287
-0.0901703
-0.0867491
-0.080428
-0.0661294
-0.0416866
-0.0113846
0.0159347
0.0336629
0.0402702
0.0385159
0.0330365
0.0268049
0.0212152
0.0151953
0.00741718
-0.000655496
-0.00631008
-0.0093485
-0.0127793
-0.0188878
-0.0261521
-0.0314373
-0.0358916
-0.0416429
-0.047524
-0.0511962
-0.052831
-0.0537624
-0.0536203
-0.0507383
-0.0450642
-0.0381308
-0.0293877
-0.0176156
-0.00384974
0.0103231
0.025254
0.0405932
0.0544058
0.0653895
0.0734967
0.078094
0.0780949
0.0734991
0.0653932
0.0544103
0.0405982
0.0252589
0.0103277
-0.0038458
-0.0176124
-0.0293854
-0.038129
-0.0450628
-0.0507373
-0.0536195
-0.0537617
-0.0528303
-0.0511959
-0.0475242
-0.0416435
-0.0358927
-0.0314389
-0.0261543
-0.0188903
-0.0127817
-0.00935075
-0.00631199
-0.000656847
0.00741643
0.015195
0.0212154
0.0268057
0.0330379
0.0385174
0.0402716
0.0336639
0.0159353
-0.0113843
-0.0416866
-0.0661295
-0.0804283
-0.0867497
-0.0901712
-0.0927299
-0.0913479
-0.0817533
-0.0634969
-0.0412465
-0.0215343
-0.00853327
-0.00198473
-0.000449721
-0.00523845
-0.0193351
-0.042146
-0.0667459
-0.08389
-0.0881822
-0.0816776
-0.0714359
-0.0627479
-0.0540322
-0.0393474
-0.0150065
0.0159347
0.0447341
0.0640945
0.0712652
0.0683422
0.0605952
0.0518416
0.0439013
0.0358342
0.0263049
0.0172343
0.0116225
0.00897442
0.00615587
0.00133382
-0.00428887
-0.00842597
-0.012705
-0.0189024
-0.0250562
-0.0291145
-0.0320962
-0.0346778
-0.0355725
-0.0336571
-0.0295536
-0.0244307
-0.0175891
-0.00827934
0.00219334
0.0125162
0.0232785
0.0342178
0.0437281
0.0510727
0.0565243
0.0596537
0.059655
0.0565277
0.051078
0.0437346
0.0342249
0.0232855
0.0125227
0.00219888
-0.00827489
-0.0175858
-0.0244283
-0.0295519
-0.0336561
-0.0355721
-0.0346778
-0.0320966
-0.0291156
-0.0250579
-0.0189045
-0.0127072
-0.00842854
-0.0042916
0.00133137
0.006154
0.00897324
0.0116218
0.0172341
0.0263052
0.0358349
0.0439022
0.0518428
0.0605967
0.0683436
0.0712663
0.0640951
0.0447346
0.0159353
-0.015006
-0.0393471
-0.0540321
-0.0627479
-0.0714362
-0.0816782
-0.0881828
-0.0838903
-0.0667456
-0.0421451
-0.0193341
-0.00523772
-0.0004495
0.000831169
-0.00249403
-0.0175314
-0.0429573
-0.0696197
-0.08619
-0.0867703
-0.0746582
-0.0588963
-0.0463298
-0.0358679
-0.021176
0.00258207
0.0336629
0.0640945
0.0862579
0.0960256
0.0943369
0.0862927
0.0763085
0.0666117
0.0565423
0.0450736
0.0345819
0.0282535
0.0250973
0.0223436
0.0189067
0.0157435
0.0139479
0.0113252
0.006512
0.00201204
-0.000709369
-0.0035785
-0.00660598
-0.00773027
-0.00638064
-0.00375855
-0.000505474
0.00411507
0.0102962
0.0166039
0.0221546
0.0276208
0.0328258
0.0367735
0.0394738
0.0414669
0.0426165
0.0426178
0.0414707
0.0394796
0.0367809
0.032834
0.0276291
0.0221625
0.0166109
0.0103021
0.0041196
-0.000502233
-0.0037565
-0.00637976
-0.00773048
-0.00660705
-0.00358026
-0.000711871
0.00200895
0.00650887
0.0113223
0.0139452
0.0157411
0.0189051
0.0223429
0.0250975
0.0282541
0.0345826
0.0450745
0.0565434
0.0666127
0.0763095
0.0862938
0.0943377
0.0960262
0.0862584
0.0640951
0.0336639
0.00258299
-0.0211754
-0.0358675
-0.0463296
-0.0588962
-0.0746582
-0.0867704
-0.0861899
-0.0696191
-0.0429561
-0.01753
-0.00249295
0.000831546
0.00153
-0.00120441
-0.0173497
-0.0449012
-0.0730643
-0.0891411
-0.0871291
-0.0713646
-0.0521034
-0.0371173
-0.0257693
-0.0117479
0.0104091
0.0402702
0.0712652
0.0960256
0.109377
0.110927
0.104863
0.0957329
0.0858888
0.0749586
0.0625061
0.0511394
0.043947
0.0396365
0.036139
0.0334283
0.0324781
0.0331802
0.0329122
0.0308275
0.0296028
0.0298856
0.0288998
0.0271047
0.0269711
0.0284407
0.0298515
0.0312059
0.0332444
0.0356101
0.0369943
0.0371617
0.0367915
0.0357649
0.0338417
0.0317829
0.0302447
0.0293439
0.0293451
0.0302482
0.0317883
0.0338487
0.0357731
0.0368002
0.0371703
0.0370023
0.0356171
0.03325
0.0312098
0.0298538
0.0284413
0.0269702
0.0271026
0.0288968
0.0298821
0.029599
0.0308241
0.0329096
0.0331783
0.0324767
0.0334279
0.0361395
0.0396376
0.0439481
0.0511401
0.0625068
0.0749593
0.0858894
0.0957335
0.104864
0.110927
0.109378
0.0960262
0.0712663
0.0402716
0.0104103
-0.0117474
-0.0257693
-0.0371173
-0.0521032
-0.0713643
-0.0871288
-0.0891407
-0.0730635
-0.0448998
-0.017348
-0.00120296
0.00153054
0.00126053
-0.00248906
-0.0204896
-0.0500353
-0.0792062
-0.0945939
-0.0905413
-0.0722826
-0.0506575
-0.0338842
-0.0217697
-0.00850737
0.0113295
0.0385159
0.0683422
0.0943369
0.110927
0.116417
0.113629
0.106869
0.0983684
0.0881161
0.0764069
0.0656786
0.0584792
0.053237
0.0486243
0.0459142
0.04639
0.0488739
0.0506123
0.0514515
0.0540091
0.058071
0.0601916
0.0609886
0.0629228
0.0651939
0.0657439
0.0652179
0.0643658
0.0623617
0.0582882
0.052766
0.0465179
0.0394988
0.0321995
0.0259662
0.0214154
0.0187934
0.0187942
0.021418
0.0259706
0.0322054
0.0395059
0.046526
0.0527744
0.0582964
0.0623691
0.0643718
0.0652221
0.0657462
0.0651943
0.0629215
0.060986
0.0601883
0.0580674
0.0540057
0.0514488
0.0506106
0.048873
0.0463896
0.0459146
0.0486253
0.053238
0.0584798
0.0656787
0.0764067
0.0881161
0.0983686
0.106869
0.11363
0.116417
0.110927
0.0943377
0.0683436
0.0385174
0.0113306
-0.00850722
-0.0217701
-0.0338845
-0.0506573
-0.072282
-0.0905407
-0.0945934
-0.0792055
-0.0500339
-0.0204877
-0.00248735
0.0012612
3.44655e-05
-0.00634193
-0.0270316
-0.0586132
-0.0884571
-0.103026
-0.0974048
-0.0775666
-0.0544113
-0.0360746
-0.0226659
-0.0092921
0.0087697
0.0330365
0.0605952
0.0862927
0.104863
0.113629
0.114048
0.109935
0.103184
0.0942981
0.0844186
0.075626
0.0696089
0.0643509
0.0590251
0.0561715
0.0574339
0.0607038
0.0635041
0.066546
0.0722487
0.0796464
0.0849498
0.0887287
0.0931226
0.0965155
0.0964764
0.0941911
0.0904245
0.084
0.0745386
0.0635756
0.0519715
0.0398297
0.0281973
0.0187385
0.011977
0.00817981
0.00818032
0.0119787
0.0187415
0.0282015
0.039835
0.0519779
0.0635827
0.0745458
0.0840066
0.09043
0.0941952
0.0964787
0.0965161
0.0931218
0.0887269
0.0849474
0.079644
0.0722467
0.0665445
0.0635034
0.0607036
0.057434
0.0561718
0.0590256
0.0643511
0.0696086
0.0756252
0.0844178
0.0942979
0.103184
0.109935
0.114048
0.11363
0.104864
0.0862938
0.0605967
0.0330379
0.0087702
-0.00929268
-0.022667
-0.0360754
-0.0544112
-0.0775659
-0.097404
-0.103026
-0.0884564
-0.0586118
-0.0270296
-0.00634001
3.52541e-05
-0.00179253
-0.011744
-0.0354928
-0.0689408
-0.0990804
-0.112777
-0.106127
-0.0856549
-0.0619044
-0.042342
-0.0271569
-0.0126106
0.00483777
0.0268049
0.0518416
0.0763085
0.0957329
0.106869
0.109935
0.107914
0.102207
0.0941037
0.0858177
0.0792095
0.0749659
0.0704467
0.0650619
0.0623185
0.0640067
0.067262
0.0702042
0.0743568
0.0818036
0.091071
0.0984785
0.104498
0.110793
0.115006
0.114445
0.110685
0.104493
0.0944644
0.0807278
0.0655376
0.0499154
0.034176
0.0196672
0.00809699
-2.98108e-05
-0.00443787
-0.00443767
-2.90053e-05
0.00809862
0.0196695
0.034179
0.0499191
0.0655421
0.0807325
0.094469
0.104498
0.110689
0.114448
0.115008
0.110793
0.104498
0.098478
0.0910705
0.081803
0.0743564
0.0702039
0.0672617
0.0640063
0.062318
0.0650614
0.070446
0.0749648
0.0792084
0.0858171
0.0941038
0.102208
0.107914
0.109935
0.106869
0.0957335
0.0763096
0.0518428
0.0268057
0.00483743
-0.012612
-0.0271587
-0.0423431
-0.0619043
-0.0856539
-0.106126
-0.112776
-0.0990797
-0.0689394
-0.0354905
-0.0117418
-0.00179161
-0.00374601
-0.017353
-0.0438873
-0.0786479
-0.108523
-0.121196
-0.11393
-0.0936812
-0.0703473
-0.0502211
-0.0333331
-0.0170584
0.000759016
0.0212152
0.0439013
0.0666117
0.0858888
0.0983684
0.103184
0.102207
0.0963405
0.0877826
0.0799536
0.0748586
0.0722818
0.0690032
0.0645306
0.0628585
0.0655762
0.0691882
0.0724171
0.0772996
0.0854679
0.0951609
0.103201
0.110019
0.116841
0.120867
0.119419
0.114337
0.106388
0.0940865
0.0779331
0.0605044
0.0428349
0.0254183
0.0096675
-0.00287197
-0.0116207
-0.0162138
-0.0162139
-0.0116207
-0.00287182
0.00966763
0.0254184
0.0428355
0.0605054
0.0779345
0.0940884
0.10639
0.11434
0.119422
0.12087
0.116844
0.110021
0.103203
0.0951622
0.0854686
0.0772996
0.0724166
0.0691873
0.065575
0.062857
0.0645291
0.0690018
0.0722804
0.0748575
0.0799534
0.087783
0.0963412
0.102208
0.103184
0.0983686
0.0858894
0.0666127
0.0439022
0.0212154
0.000757964
-0.0170604
-0.0333352
-0.0502221
-0.0703469
-0.09368
-0.113929
-0.121195
-0.108523
-0.0786463
-0.0438848
-0.0173505
-0.00374498
-0.00533191
-0.021787
-0.0501703
-0.0852952
-0.114192
-0.125617
-0.118085
-0.0989257
-0.0772279
-0.0577934
-0.0402168
-0.0226505
-0.00424118
0.0151953
0.0358342
0.0565423
0.0749586
0.0881161
0.0942981
0.0941037
0.0877826
0.0781484
0.0697748
0.0652269
0.0636832
0.061704
0.0589417
0.0593397
0.063971
0.0688292
0.0731067
0.0790059
0.0875077
0.0965637
0.103777
0.109706
0.115267
0.117626
0.114506
0.107966
0.098773
0.0855185
0.0689478
0.0515555
0.034081
0.0170374
0.00177793
-0.0104405
-0.0190353
-0.0234895
-0.0234899
-0.0190363
-0.0104422
0.00177561
0.0170346
0.0340782
0.0515531
0.0689462
0.0855182
0.0987742
0.107968
0.11451
0.117631
0.115272
0.10971
0.10378
0.0965665
0.0875092
0.0790061
0.0731058
0.0688276
0.0639691
0.0593375
0.0589395
0.0617022
0.0636818
0.065226
0.0697747
0.0781488
0.087783
0.0941038
0.0942979
0.0881161
0.0749593
0.0565433
0.0358349
0.015195
-0.00424268
-0.0226527
-0.0402187
-0.0577941
-0.0772271
-0.0989242
-0.118084
-0.125616
-0.114191
-0.0852935
-0.0501676
-0.0217844
-0.00533078
-0.00629946
-0.0243551
-0.0533755
-0.0878564
-0.115178
-0.125302
-0.11797
-0.100792
-0.0819407
-0.0646077
-0.0477178
-0.0298257
-0.0111661
0.00741718
0.0263049
0.0450736
0.0625061
0.0764069
0.0844186
0.0858177
0.0799536
0.0697748
0.0608346
0.0563968
0.055273
0.0542694
0.0533418
0.0560083
0.0627117
0.0691375
0.0748189
0.0818444
0.0902498
0.0976027
0.102503
0.105825
0.108226
0.107221
0.101347
0.0928944
0.0825717
0.0691229
0.053533
0.0379966
0.0226312
0.00774373
-0.00534506
-0.0157476
-0.023214
-0.0271706
-0.0271713
-0.0232163
-0.0157514
-0.00534986
0.00773845
0.0226259
0.0379918
0.0535293
0.0691211
0.0825719
0.0928966
0.101351
0.107227
0.108232
0.105831
0.102508
0.0976066
0.0902521
0.0818449
0.074818
0.0691359
0.0627098
0.0560061
0.0533397
0.0542677
0.0552718
0.056396
0.0608343
0.0697747
0.0799534
0.0858171
0.0844178
0.0764067
0.0625067
0.0450745
0.0263052
0.00741644
-0.0111678
-0.0298278
-0.0477193
-0.0646079
-0.0819395
-0.10079
-0.117969
-0.125301
-0.115177
-0.0878545
-0.0533725
-0.0243522
-0.00629824
-0.00676022
-0.0254396
-0.0542891
-0.0876398
-0.113307
-0.122399
-0.11568
-0.100904
-0.0853668
-0.0707814
-0.0553572
-0.0377474
-0.0189219
-0.000655496
0.0172343
0.0345819
0.0511394
0.0656786
0.075626
0.0792095
0.0748586
0.0652269
0.0563968
0.0520259
0.0507292
0.0500524
0.0504164
0.0547187
0.062746
0.0701115
0.0766528
0.0842587
0.091825
0.0964764
0.0979065
0.0973709
0.0952582
0.0897076
0.0803857
0.069784
0.058406
0.0451039
0.031194
0.0185814
0.00658974
-0.00485006
-0.0143281
-0.0213895
-0.0265842
-0.0295568
-0.029558
-0.0265876
-0.021395
-0.0143348
-0.00485704
0.00658295
0.0185752
0.0311893
0.0451011
0.0584053
0.0697853
0.080389
0.0897127
0.0952643
0.0973771
0.0979122
0.096481
0.0918281
0.0842602
0.0766529
0.0701109
0.062745
0.0547171
0.0504146
0.0500509
0.0507281
0.052025
0.056396
0.065226
0.0748575
0.0792084
0.0756252
0.0656787
0.0511401
0.0345826
0.0172341
-0.000656821
-0.018924
-0.0377495
-0.0553583
-0.0707812
-0.0853654
-0.100902
-0.115679
-0.122398
-0.113306
-0.0876376
-0.0542858
-0.0254365
-0.00675889
-0.00699039
-0.0258578
-0.054219
-0.0863601
-0.110579
-0.118991
-0.113103
-0.100648
-0.0881195
-0.0760271
-0.0619889
-0.0445725
-0.0251652
-0.00631008
0.0116225
0.0282535
0.043947
0.0584792
0.0696089
0.0749659
0.0722818
0.0636832
0.055273
0.0507292
0.048597
0.0474746
0.0482963
0.0532573
0.0614218
0.0685216
0.0748182
0.0821381
0.0882599
0.0898337
0.0876002
0.0831607
0.0766083
0.0667578
0.0544905
0.0424019
0.030659
0.0181093
0.00643674
-0.00264119
-0.0105205
-0.0176812
-0.022579
-0.0252227
-0.027213
-0.0286941
-0.0286954
-0.027217
-0.0252289
-0.0225863
-0.0176886
-0.0105276
-0.0026476
0.00643166
0.0181059
0.0306572
0.0424019
0.0544923
0.0667615
0.0766131
0.083166
0.0876056
0.0898387
0.0882638
0.0821407
0.0748199
0.0685225
0.0614219
0.0532564
0.0482949
0.0474732
0.0485958
0.0507281
0.0552718
0.0636818
0.0722804
0.0749648
0.0696086
0.0584798
0.0439481
0.0282541
0.0116219
-0.00631195
-0.0251676
-0.0445745
-0.0619898
-0.0760267
-0.0881182
-0.100647
-0.113102
-0.11899
-0.110578
-0.0863576
-0.0542154
-0.0258545
-0.00698902
-0.00700134
-0.0256477
-0.0532016
-0.0840198
-0.106933
-0.114869
-0.109796
-0.099245
-0.089012
-0.078815
-0.0659449
-0.0488264
-0.0289628
-0.0093485
0.00897442
0.0250973
0.0396365
0.053237
0.0643509
0.0704467
0.0690032
0.061704
0.0542694
0.0500524
0.0474746
0.046149
0.0474504
0.0528146
0.0604707
0.0663629
0.0713327
0.0773623
0.0813941
0.0797564
0.0741856
0.0665452
0.0565351
0.0434944
0.0293731
0.0167597
0.0054933
-0.00561097
-0.0146428
-0.0200571
-0.0236989
-0.0264051
-0.0267071
-0.0250453
-0.0237833
-0.0235921
-0.0235933
-0.0237866
-0.0250503
-0.0267132
-0.0264117
-0.0237055
-0.0200632
-0.014648
-0.00561505
0.0054904
0.0167581
0.0293731
0.043496
0.056538
0.066549
0.0741901
0.0797613
0.0813989
0.0773664
0.071336
0.0663653
0.0604719
0.0528144
0.0474493
0.0461476
0.0474732
0.0500509
0.0542677
0.0617022
0.0690018
0.070446
0.0643511
0.053238
0.0396376
0.0250975
0.00897325
-0.00935072
-0.0289651
-0.048828
-0.0659454
-0.0788143
-0.0890107
-0.0992436
-0.109795
-0.114868
-0.106932
-0.0840173
-0.0531982
-0.0256447
-0.00700004
-0.00629649
-0.02338
-0.0490968
-0.0781054
-0.0998405
-0.107857
-0.104198
-0.0958484
-0.08793
-0.0797016
-0.0684031
-0.0523557
-0.0328215
-0.0127793
0.00615587
0.0223436
0.036139
0.0486243
0.0590251
0.0650619
0.0645306
0.0589417
0.0533418
0.0504164
0.0482963
0.0474504
0.0497369
0.055814
0.0629005
0.0671027
0.0698606
0.0734796
0.0745669
0.0695493
0.0611068
0.051203
0.0390125
0.024206
0.00944905
-0.00286812
-0.0130505
-0.0221402
-0.0282868
-0.0302689
-0.0300448
-0.0287586
-0.0254713
-0.0209534
-0.0175257
-0.0160415
-0.0160421
-0.0175273
-0.0209558
-0.0254748
-0.0287634
-0.0300502
-0.0302744
-0.028292
-0.022145
-0.0130545
-0.002871
0.00944729
0.0242054
0.0390132
0.0512051
0.0611102
0.0695539
0.0745723
0.0734849
0.0698654
0.0671065
0.0629027
0.0558145
0.0497362
0.0474493
0.0482949
0.0504146
0.0533397
0.0589396
0.0645291
0.0650614
0.0590256
0.0486253
0.0361395
0.0223429
0.00615402
-0.0127817
-0.0328234
-0.0523565
-0.0684028
-0.0797005
-0.0879285
-0.095847
-0.104197
-0.107856
-0.0998391
-0.0781031
-0.0490938
-0.0233773
-0.00629536
-0.00463481
-0.0183502
-0.0408359
-0.0673465
-0.0880681
-0.0970791
-0.0960898
-0.0911204
-0.0864536
-0.0809749
-0.0720434
-0.0579131
-0.0393179
-0.0188878
0.00133382
0.0189067
0.0334283
0.0459142
0.0561715
0.0623185
0.0628585
0.0593397
0.0560083
0.0547187
0.0532573
0.0528146
0.055814
0.0621731
0.0680922
0.0698823
0.0694115
0.0692849
0.0662923
0.0574766
0.0463457
0.0348109
0.0215351
0.00639677
-0.00774507
-0.0190254
-0.0276519
-0.0342552
-0.0373624
-0.0363171
-0.0329059
-0.0285307
-0.0231862
-0.0178358
-0.0139073
-0.0119149
-0.0119149
-0.0139069
-0.0178354
-0.0231868
-0.0285331
-0.0329097
-0.0363215
-0.0373673
-0.0342604
-0.0276567
-0.0190295
-0.00774845
0.00639416
0.0215338
0.0348114
0.0463479
0.0574805
0.0662976
0.0692908
0.0694171
0.069887
0.0680955
0.0621748
0.0558145
0.0528144
0.0532564
0.0547172
0.0560061
0.0593375
0.062857
0.062318
0.0561718
0.0459146
0.0334279
0.0189051
0.00133139
-0.0188902
-0.0393194
-0.0579132
-0.0720426
-0.0809735
-0.086452
-0.0911189
-0.0960885
-0.0970779
-0.0880666
-0.0673445
-0.0408333
-0.0183479
-0.00463383
-0.00256307
-0.0121164
-0.030728
-0.0544313
-0.0743254