/*--------------------------------*- C++ -*----------------------------------*\
  =========                 |
  \\      /  F ield         | OpenFOAM: The Open Source CFD Toolbox
   \\    /   O peration     | Website:  https://openfoam.org
    \\  /    A nd           | Version:  10
     \\/     M anipulation  |
\*---------------------------------------------------------------------------*/
FoamFile
{
    format      ascii;
    class       volScalarField;
    location    "48";
    object      h_0;
}
// * * * * * * * * * * * * * * * * * * * * * * * * * * * * * * * * * * * * * //

dimensions      [0 1 0 0 0 0 0];

internalField   nonuniform List<scalar> 
10000
(
-0.00246163
-0.00635217
-0.00791618
-0.0075842
-0.00715948
-0.00836961
-0.0114218
-0.0147443
-0.0161975
-0.0147464
-0.0111539
-0.00719719
-0.00415787
-0.00214284
-0.000633627
0.000624678
0.0013176
0.00105975
-0.000143447
-0.00194166
-0.00386164
-0.00541066
-0.00633566
-0.00674406
-0.00691692
-0.00687882
-0.00613815
-0.00444612
-0.00234117
-0.000436364
0.00139195
0.003523
0.00576692
0.00744559
0.00837509
0.009077
0.00967029
0.00963248
0.00889655
0.00802444
0.00713953
0.00593455
0.00449625
0.00322372
0.00212543
0.00102196
4.5639e-05
-0.00060627
-0.0010448
-0.00134184
-0.00134183
-0.00104476
-0.000606218
4.56839e-05
0.00102198
0.00212541
0.00322361
0.00449604
0.00593423
0.00713909
0.00802386
0.00889587
0.00963174
0.00966951
0.00907622
0.00837441
0.00744508
0.00576659
0.00352288
0.00139212
-0.000435871
-0.00234041
-0.00444518
-0.00613704
-0.00687755
-0.00691557
-0.00674274
-0.00633443
-0.00540952
-0.0038606
-0.00194073
-0.000142645
0.00106043
0.00131816
0.000625063
-0.000633402
-0.0021427
-0.00415779
-0.00719726
-0.0111543
-0.0147472
-0.0161984
-0.0147452
-0.0114225
-0.0083702
-0.00716019
-0.00758517
-0.00791729
-0.00635308
-0.002462
-0.00635217
-0.0161069
-0.0192498
-0.017152
-0.015183
-0.0184328
-0.0275268
-0.0378562
-0.043093
-0.0401276
-0.0310622
-0.020957
-0.0134874
-0.00891685
-0.00568913
-0.00300679
-0.00173545
-0.00299185
-0.00678677
-0.0121172
-0.0176449
-0.0219909
-0.0244559
-0.0254097
-0.0256828
-0.0253502
-0.0229951
-0.0178904
-0.0115716
-0.00577895
-0.000131639
0.00646816
0.0134488
0.0188953
0.022278
0.0250374
0.0274696
0.0280921
0.0266951
0.0248362
0.0228448
0.019859
0.0161355
0.0127933
0.00986248
0.00686312
0.00418583
0.00238512
0.00116512
0.000338347
0.000338373
0.00116521
0.00238525
0.00418593
0.00686314
0.00986236
0.0127929
0.0161348
0.0198581
0.0228435
0.0248345
0.0266932
0.02809
0.0274674
0.0250352
0.0222761
0.0188939
0.0134479
0.00646782
-0.000131231
-0.00577774
-0.0115697
-0.0178881
-0.0229924
-0.0253471
-0.0256796
-0.0254066
-0.024453
-0.0219883
-0.0176424
-0.012115
-0.00678486
-0.00299016
-0.00173403
-0.00300574
-0.00568845
-0.00891636
-0.013487
-0.020957
-0.0310629
-0.0401293
-0.0430953
-0.0378582
-0.0275282
-0.0184338
-0.0151844
-0.0171542
-0.0192525
-0.0161092
-0.00635309
-0.00791618
-0.0192498
-0.0206143
-0.0144739
-0.00956131
-0.0140596
-0.0290019
-0.0470575
-0.0580487
-0.0567963
-0.0462504
-0.0340586
-0.0258478
-0.0219419
-0.019832
-0.0181193
-0.0179696
-0.0210784
-0.0275508
-0.0359305
-0.0442383
-0.0504309
-0.0535263
-0.0542894
-0.0540461
-0.0528867
-0.0486884
-0.0403446
-0.0301326
-0.0205901
-0.0110557
0.000132831
0.012044
0.0218807
0.0288667
0.0350125
0.0406373
0.043538
0.0433577
0.0422927
0.0407637
0.0375171
0.0329639
0.0287256
0.0248574
0.0207361
0.0169874
0.0144221
0.0126555
0.011461
0.011461
0.0126556
0.0144222
0.0169875
0.020736
0.0248571
0.0287249
0.0329627
0.0375154
0.0407615
0.04229
0.0433547
0.0435349
0.0406341
0.0350094
0.028864
0.0218788
0.0120427
0.000132304
-0.0110553
-0.0205887
-0.0301304
-0.040342
-0.0486854
-0.0528833
-0.0540425
-0.0542861
-0.0535233
-0.0504282
-0.0442359
-0.0359282
-0.0275488
-0.0210765
-0.0179679
-0.0181179
-0.0198311
-0.0219411
-0.0258469
-0.0340582
-0.0462509
-0.056798
-0.0580509
-0.0470591
-0.0290025
-0.0140595
-0.00956179
-0.0144757
-0.0206172
-0.0192525
-0.0079173
-0.0075842
-0.017152
-0.0144739
-0.00313421
0.00525418
-6.42528e-05
-0.0204731
-0.0464378
-0.0645729
-0.0677828
-0.0593077
-0.0485086
-0.0424431
-0.0415168
-0.0425154
-0.0434382
-0.0454298
-0.0505421
-0.0590575
-0.0693187
-0.0789661
-0.0855579
-0.0880456
-0.0877083
-0.0862802
-0.083827
-0.0778518
-0.0670328
-0.0540231
-0.0416879
-0.0290632
-0.0141514
0.00183938
0.015759
0.0267713
0.0369995
0.0466042
0.0530251
0.055787
0.0572302
0.0577016
0.0557808
0.0520012
0.0481711
0.0443587
0.039999
0.0359112
0.0330202
0.0309724
0.0296012
0.0296012
0.0309724
0.0330202
0.035911
0.0399985
0.0443578
0.0481698
0.0519993
0.0557784
0.0576987
0.0572268
0.0557834
0.0530214
0.0466006
0.0369962
0.0267685
0.015757
0.00183817
-0.0141518
-0.0290628
-0.0416866
-0.0540213
-0.0670307
-0.0778495
-0.0838245
-0.0862776
-0.087706
-0.0880436
-0.0855562
-0.0789645
-0.0693172
-0.0590561
-0.0505407
-0.0454284
-0.0434371
-0.0425145
-0.0415159
-0.0424421
-0.0485079
-0.0593078
-0.0677839
-0.0645742
-0.0464381
-0.0204717
-6.1904e-05
0.00525589
-0.00313433
-0.0144757
-0.0171542
-0.0075852
-0.00715948
-0.015183
-0.00956131
0.00525418
0.0156209
0.00904342
-0.0160848
-0.0487278
-0.0732686
-0.0811412
-0.0754754
-0.0665111
-0.0623041
-0.0635991
-0.0669571
-0.0699619
-0.0734733
-0.0796081
-0.0888071
-0.0993794
-0.108791
-0.114441
-0.115394
-0.113444
-0.11061
-0.106896
-0.0997828
-0.0879783
-0.0741609
-0.0610252
-0.0472958
-0.0309023
-0.0131995
0.00290212
0.0167724
0.0302252
0.0431174
0.0529648
0.0592627
0.0639864
0.0672342
0.0676513
0.0658412
0.0634447
0.0605022
0.0566806
0.0529275
0.0501263
0.0480534
0.0466891
0.0466889
0.0480531
0.0501258
0.0529266
0.0566793
0.0605004
0.0634425
0.0658384
0.067648
0.0672306
0.0639825
0.0592588
0.0529612
0.0431141
0.0302224
0.0167703
0.00290082
-0.0132
-0.0309022
-0.0472952
-0.0610241
-0.0741595
-0.0879768
-0.0997814
-0.106894
-0.110609
-0.113443
-0.115393
-0.11444
-0.10879
-0.0993786
-0.0888063
-0.0796073
-0.0734725
-0.0699612
-0.0669567
-0.0635987
-0.0623035
-0.0665106
-0.0754755
-0.081142
-0.0732692
-0.0487269
-0.0160818
0.00904776
0.0156246
0.00525586
-0.00956185
-0.0151845
-0.00716022
-0.00836961
-0.0184328
-0.0140596
-6.42528e-05
0.00904342
5.84488e-05
-0.0286346
-0.0652878
-0.0932961
-0.103282
-0.0980614
-0.0880935
-0.0821322
-0.0817555
-0.0840184
-0.0864701
-0.089508
-0.0949658
-0.103348
-0.113046
-0.121437
-0.125847
-0.12551
-0.122545
-0.119057
-0.114895
-0.107885
-0.0970913
-0.0849061
-0.0733948
-0.0610472
-0.0460641
-0.0298001
-0.0143977
1.33523e-05
0.0146203
0.0289054
0.0408865
0.0501856
0.058009
0.0640687
0.0672714
0.068217
0.0680591
0.0667364
0.0642347
0.0615317
0.0593273
0.0575666
0.0564187
0.0564184
0.0575658
0.0593261
0.0615299
0.0642323
0.0667334
0.0680556
0.0682132
0.0672673
0.0640646
0.058005
0.0501819
0.0408834
0.028903
0.0146186
1.23346e-05
-0.0143979
-0.0297998
-0.0460633
-0.0610462
-0.0733936
-0.0849048
-0.09709
-0.107884
-0.114894
-0.119056
-0.122544
-0.125509
-0.125846
-0.121436
-0.113045
-0.103348
-0.0949653
-0.0895075
-0.0864699
-0.0840186
-0.0817559
-0.0821326
-0.0880939
-0.0980624
-0.103283
-0.093297
-0.065287
-0.0286315
6.31593e-05
0.00904775
-6.19348e-05
-0.0140596
-0.0184339
-0.00837024
-0.0114218
-0.0275268
-0.0290019
-0.0204731
-0.0160848
-0.0286346
-0.0594659
-0.0968986
-0.12463
-0.133214
-0.125082
-0.11032
-0.0980774
-0.0912906
-0.0882652
-0.0870221
-0.0874896
-0.0909222
-0.0977388
-0.106397
-0.114156
-0.118282
-0.118126
-0.115766
-0.113112
-0.109772
-0.104175
-0.0960496
-0.0872883
-0.0790629
-0.06982
-0.0583839
-0.0460001
-0.0337302
-0.0210017
-0.00740981
0.00616336
0.0185877
0.0297955
0.0400239
0.0485502
0.0546873
0.0589468
0.0617792
0.0629369
0.0626955
0.0619276
0.0610363
0.0600974
0.0594448
0.0594443
0.060096
0.0610341
0.0619245
0.0626917
0.0629326
0.0617746
0.058942
0.0546827
0.048546
0.0400203
0.0297925
0.0185855
0.00616214
-0.00741027
-0.0210016
-0.0337295
-0.045999
-0.0583826
-0.0698188
-0.0790617
-0.0872869
-0.0960482
-0.104174
-0.109771
-0.113111
-0.115764
-0.118125
-0.118281
-0.114155
-0.106396
-0.097738
-0.0909215
-0.0874892
-0.0870222
-0.0882658
-0.0912917
-0.0980787
-0.110321
-0.125084
-0.133217
-0.124632
-0.0968991
-0.0594642
-0.0286314
-0.0160817
-0.0204717
-0.0290025
-0.0275282
-0.0114226
-0.0147443
-0.0378562
-0.0470575
-0.0464378
-0.0487278
-0.0652878
-0.0968986
-0.13262
-0.157571
-0.162893
-0.150474
-0.129324
-0.108497
-0.0925473
-0.0816332
-0.0747919
-0.0716341
-0.0726031
-0.0778642
-0.0858954
-0.093874
-0.0990775
-0.100883
-0.100914
-0.100583
-0.0991441
-0.0957346
-0.0909785
-0.0861677
-0.0814762
-0.0755423
-0.0681075
-0.0603105
-0.0520859
-0.0421292
-0.0308154
-0.0193325
-0.00775447
0.00431113
0.0161714
0.0267455
0.0358445
0.0438186
0.0503463
0.0549397
0.0580321
0.0602272
0.0615478
0.0621018
0.0622939
0.0622932
0.0620998
0.0615447
0.0602231
0.0580273
0.0549344
0.050341
0.0438136
0.03584
0.0267417
0.0161686
0.00430922
-0.00775542
-0.0193325
-0.0308148
-0.0421283
-0.0520846
-0.060309
-0.068106
-0.0755409
-0.081475
-0.0861663
-0.090977
-0.0957332
-0.0991426
-0.100581
-0.100912
-0.100882
-0.099076
-0.0938728
-0.0858945
-0.0778634
-0.0726025
-0.0716337
-0.0747919
-0.0816338
-0.0925485
-0.108499
-0.129326
-0.150477
-0.162896
-0.157574
-0.132622
-0.0968991
-0.0652869
-0.0487268
-0.0464381
-0.0470591
-0.0378583
-0.0147452
-0.0161975
-0.043093
-0.0580487
-0.0645729
-0.0732686
-0.0932961
-0.12463
-0.157571
-0.179479
-0.182512
-0.167703
-0.142184
-0.114198
-0.0897491
-0.0711317
-0.058767
-0.0521365
-0.0507877
-0.0545717
-0.0620504
-0.0704752
-0.0773322
-0.0819912
-0.085349
-0.0880468
-0.0889114
-0.087806
-0.0862926
-0.0849573
-0.0829534
-0.0793511
-0.0749733
-0.0708976
-0.0660955
-0.0587073
-0.0497995
-0.0407765
-0.0306461
-0.0185039
-0.00574985
0.00637964
0.0182334
0.0299606
0.0405492
0.0492933
0.0566029
0.0626427
0.0670023
0.0697037
0.0710824
0.0710816
0.0697014
0.0669987
0.0626381
0.0565976
0.0492879
0.0405441
0.029956
0.0182297
0.006377
-0.00575142
-0.0185045
-0.0306458
-0.0407755
-0.0497982
-0.0587059
-0.066094
-0.070896
-0.0749718
-0.0793498
-0.0829522
-0.0849559
-0.086291
-0.0878045
-0.0889101
-0.0880454
-0.0853475
-0.08199
-0.0773314
-0.0704748
-0.0620502
-0.0545716
-0.0507876
-0.0521363
-0.0587669
-0.071132
-0.08975
-0.1142
-0.142185
-0.167705
-0.182515
-0.179482
-0.157574
-0.124632
-0.0932969
-0.0732691
-0.0645742
-0.0580509
-0.0430953
-0.0161985
-0.0147464
-0.0401276
-0.0567963
-0.0677828
-0.0811412
-0.103282
-0.133214
-0.162893
-0.182512
-0.185629
-0.172174
-0.14665
-0.11566
-0.0860361
-0.0621206
-0.0458609
-0.0368297
-0.0337447
-0.0360345
-0.0423539
-0.0502701
-0.0578628
-0.0646589
-0.0708052
-0.0760393
-0.0788218
-0.0796819
-0.080911
-0.0823361
-0.0821633
-0.0800009
-0.0776313
-0.0760639
-0.0735964
-0.0681584
-0.0613458
-0.0546498
-0.0462071
-0.0347081
-0.0219534
-0.00906392
0.00482872
0.0196647
0.0339335
0.0468263
0.0585719
0.0687602
0.0765307
0.0817363
0.0845003
0.0844995
0.081734
0.0765272
0.0687559
0.0585672
0.0468217
0.0339294
0.0196614
0.00482641
-0.00906517
-0.0219537
-0.0347076
-0.0462059
-0.0546482
-0.061344
-0.0681567
-0.0735947
-0.0760622
-0.0776298
-0.0799996
-0.082162
-0.0823347
-0.0809095
-0.0796808
-0.0788211
-0.0760389
-0.0708049
-0.064659
-0.0578635
-0.0502712
-0.042355
-0.0360353
-0.0337451
-0.0368297
-0.0458608
-0.0621206
-0.0860367
-0.11566
-0.146651
-0.172175
-0.185631
-0.182515
-0.162896
-0.133217
-0.103283
-0.081142
-0.0677839
-0.056798
-0.0401294
-0.0147472
-0.0111539
-0.0310622
-0.0462504
-0.0593077
-0.0754754
-0.0980614
-0.125082
-0.150474
-0.167703
-0.172174
-0.162696
-0.140761
-0.110732
-0.0795119
-0.0531745
-0.03514
-0.0252177
-0.0213917
-0.0224337
-0.0270287
-0.0332871
-0.0402283
-0.0477488
-0.055409
-0.0620826
-0.0660658
-0.0685059
-0.0721042
-0.0759776
-0.077479
-0.0766841
-0.0760022
-0.0762824
-0.0754211
-0.0715211
-0.0665018
-0.0617807
-0.0549879
-0.0446696
-0.0327549
-0.0200054
-0.00513203
0.0116015
0.0284176
0.0445937
0.0601036
0.0739124
0.084752
0.0923059
0.0963953
0.0963948
0.0923043
0.0847495
0.0739094
0.0601005
0.0445908
0.0284152
0.0116
-0.00513276
-0.0200054
-0.0327542
-0.0446683
-0.0549863
-0.061779
-0.0665
-0.0715194
-0.0754194
-0.0762806
-0.0760005
-0.0766826
-0.0774776
-0.0759764
-0.0721033
-0.0685055
-0.0660662
-0.0620835
-0.0554101
-0.0477503
-0.0402302
-0.0332891
-0.0270305
-0.0224349
-0.0213922
-0.0252176
-0.0351397
-0.0531743
-0.0795121
-0.110733
-0.140762
-0.162697
-0.172175
-0.167705
-0.150477
-0.125084
-0.0980623
-0.0754755
-0.0593078
-0.0462509
-0.031063
-0.0111543
-0.00719719
-0.020957
-0.0340586
-0.0485086
-0.0665111
-0.0880935
-0.11032
-0.129324
-0.142184
-0.14665
-0.140761
-0.123196
-0.0958936
-0.0651723
-0.0384367
-0.0203607
-0.0110773
-0.0079995
-0.00893596
-0.0123722
-0.0169084
-0.0225577
-0.0297633
-0.0377347
-0.044643
-0.0489548
-0.0524827
-0.0580132
-0.064112
-0.0674838
-0.0685756
-0.0700131
-0.0722387
-0.0729186
-0.0706543
-0.0674598
-0.0644471
-0.0591641
-0.0503485
-0.0398937
-0.0280704
-0.0133565
0.00377248
0.0214718
0.0393012
0.0570121
0.0730228
0.0857878
0.0949188
0.099943
0.0999428
0.0949183
0.085787
0.073022
0.0570114
0.0393007
0.0214717
0.00377282
-0.0133558
-0.0280694
-0.0398925
-0.0503471
-0.0591626
-0.0644457
-0.0674583
-0.0706528
-0.072917
-0.0722371
-0.0700117
-0.0685744
-0.067483
-0.0641116
-0.0580133
-0.0524835
-0.0489564
-0.044645
-0.0377367
-0.0297655
-0.02256
-0.0169104
-0.0123737
-0.00893657
-0.00799936
-0.0110768
-0.0203601
-0.0384364
-0.0651724
-0.0958942
-0.123197
-0.140762
-0.146651
-0.142185
-0.129326
-0.110321
-0.0880939
-0.0665106
-0.0485079
-0.0340582
-0.020957
-0.00719729
-0.00415787
-0.0134874
-0.0258478
-0.0424431
-0.0623041
-0.0821322
-0.0980774
-0.108497
-0.114198
-0.11566
-0.110732
-0.0958936
-0.0708124
-0.0408038
-0.0141742
0.00334604
0.0110653
0.011852
0.00916207
0.0051304
0.000993932
-0.00402383
-0.0109554
-0.0187562
-0.0250959
-0.0289663
-0.032837
-0.0393288
-0.0468042
-0.0517647
-0.0549616
-0.0588562
-0.063189
-0.0655474
-0.0652419
-0.0640974
-0.0626285
-0.0586623
-0.0514354
-0.042719
-0.0323112
-0.0187048
-0.00262589
0.0141516
0.0315863
0.0493209
0.0654388
0.0783521
0.0877624
0.0930223
0.0930226
0.0877633
0.0783535
0.0654406
0.0493231
0.0315886
0.0141539
-0.00262372
-0.0187029
-0.0323095
-0.0427175
-0.0514341
-0.0586612
-0.0626274
-0.0640962
-0.0652406
-0.0655463
-0.063188
-0.0588555
-0.0549613
-0.051765
-0.0468051
-0.0393302
-0.0328389
-0.0289686
-0.0250983
-0.0187583
-0.0109572
-0.00402536
0.000992854
0.00513005
0.00916256
0.0118531
0.0110665
0.00334699
-0.0141736
-0.0408037
-0.0708127
-0.0958942
-0.110733
-0.11566
-0.1142
-0.108499
-0.0980787
-0.0821326
-0.0623035
-0.0424421
-0.0258469
-0.013487
-0.00415781
-0.00214284
-0.00891685
-0.0219419
-0.0415168
-0.0635991
-0.0817555
-0.0912906
-0.0925473
-0.0897491
-0.0860361
-0.0795119
-0.0651723
-0.0408038
-0.0106021
0.016649
0.0343194
0.0408451
0.0389849
0.0333994
0.0270894
0.0214805
0.0154965
0.00775656
-0.000328118
-0.0060602
-0.00916207
-0.0126054
-0.0187305
-0.0260569
-0.0314122
-0.0358857
-0.0416194
-0.047506
-0.0512086
-0.0528328
-0.0537345
-0.0535938
-0.0507228
-0.0450269
-0.0380652
-0.0293044
-0.0175016
-0.00367676
0.0105629
0.0255576
0.0409684
0.0548571
0.0659016
0.0740503
0.078673
0.0786738
0.0740527
0.0659052
0.0548617
0.0409734
0.0255625
0.0105674
-0.00367286
-0.0174984
-0.029302
-0.0380634
-0.0450255
-0.0507218
-0.053593
-0.0537337
-0.0528321
-0.0512083
-0.0475061
-0.0416199
-0.0358867
-0.0314138
-0.026059
-0.0187329
-0.0126078
-0.00916433
-0.00606212
-0.000329483
0.0077558
0.0154963
0.0214807
0.0270902
0.0334007
0.0389865
0.0408465
0.0343205
0.0166497
-0.0106018
-0.0408037
-0.0651724
-0.0795122
-0.0860367
-0.0897499
-0.0925485
-0.0912917
-0.0817559
-0.0635987
-0.0415159
-0.021941
-0.00891635
-0.00214271
-0.000633627
-0.00568913
-0.019832
-0.0425154
-0.0669571
-0.0840184
-0.0882652
-0.0816332
-0.0711317
-0.0621206
-0.0531745
-0.0384367
-0.0141742
0.016649
0.0453622
0.0646604
0.0717548
0.0687324
0.0608791
0.0520449
0.0441036
0.036111
0.0266625
0.0176246
0.0119801
0.0093074
0.0065008
0.00166173
-0.00403294
-0.0082411
-0.0125533
-0.0187696
-0.0249616
-0.0290649
-0.0320461
-0.0346138
-0.0355266
-0.0336251
-0.029493
-0.0243416
-0.0174822
-0.00812646
0.00242761
0.0128386
0.0236941
0.0347426
0.0443645
0.0518
0.0573176
0.060486
0.0604872
0.057321
0.0518052
0.0443709
0.0347497
0.0237011
0.012845
0.00243312
-0.00812204
-0.0174789
-0.0243392
-0.0294913
-0.0336241
-0.0355262
-0.0346138
-0.0320465
-0.0290659
-0.0249632
-0.0187716
-0.0125555
-0.00824365
-0.00403567
0.00165928
0.00649892
0.00930619
0.0119794
0.0176244
0.0266629
0.0361118
0.0441046
0.0520462
0.0608806
0.0687337
0.0717559
0.0646611
0.0453628
0.0166497
-0.0141737
-0.0384364
-0.0531743
-0.0621206
-0.071132
-0.0816338
-0.0882658
-0.0840186
-0.0669567
-0.0425144
-0.019831
-0.00568844
-0.00063342
0.000624678
-0.00300679
-0.0181193
-0.0434382
-0.0699619
-0.0864701
-0.0870221
-0.0747919
-0.058767
-0.0458609
-0.03514
-0.0203607
0.00334604
0.0343194
0.0646604
0.0867571
0.0964483
0.0946581
0.0864958
0.076411
0.0667036
0.0567117
0.0453377
0.0349062
0.0285887
0.0254556
0.0227494
0.0193121
0.0160888
0.0142414
0.0115853
0.00672535
0.00215689
-0.000625544
-0.00351063
-0.0065457
-0.00770497
-0.0063698
-0.00370958
-0.000420772
0.00422848
0.0104779
0.0168904
0.0225472
0.0281283
0.0334658
0.0375423
0.0403466
0.0424169
0.0436115
0.0436128
0.0424207
0.0403524
0.0375497
0.033474
0.0281366
0.0225551
0.0168973
0.0104837
0.00423299
-0.000417545
-0.00370754
-0.00636891
-0.00770517
-0.00654674
-0.00351236
-0.000628015
0.00215382
0.00672225
0.0115825
0.0142388
0.0160864
0.0193106
0.0227488
0.0254558
0.0285893
0.0349069
0.0453386
0.0567128
0.0667046
0.0764121
0.0864969
0.094659
0.0964489
0.0867576
0.0646611
0.0343204
0.00334695
-0.0203601
-0.0351397
-0.0458607
-0.0587669
-0.0747919
-0.0870222
-0.08647
-0.0699612
-0.043437
-0.0181179
-0.00300573
0.000625041
0.0013176
-0.00173545
-0.0179696
-0.0454298
-0.0734733
-0.089508
-0.0874896
-0.0716341
-0.0521365
-0.0368297
-0.0252177
-0.0110773
0.0110653
0.0408451
0.0717548
0.0964483
0.10973
0.111184
0.104998
0.0957475
0.085866
0.0749864
0.0626101
0.0513013
0.0441446
0.0398934
0.0364703
0.0337779
0.0327926
0.03348
0.0331978
0.0310565
0.0297462
0.0299603
0.028944
0.0271184
0.0269336
0.0283879
0.0298434
0.0312417
0.0333253
0.0357842
0.0372944
0.0375804
0.0373368
0.0364509
0.0346551
0.032694
0.0312295
0.0303724
0.0303736
0.031233
0.0326994
0.0346622
0.036459
0.0373454
0.037589
0.0373024
0.0357912
0.0333308
0.0312456
0.0298457
0.0283885
0.0269326
0.0271162
0.028941
0.0299568
0.0297424
0.0310531
0.0331951
0.033478
0.0327912
0.0337775
0.0364709
0.0398944
0.0441456
0.0513021
0.0626107
0.0749871
0.0858666
0.0957481
0.104999
0.111185
0.10973
0.0964489
0.0717559
0.0408465
0.0110665
-0.0110768
-0.0252176
-0.0368297
-0.0521363
-0.0716337
-0.0874892
-0.0895075
-0.0734725
-0.0454284
-0.0179679
-0.00173402
0.00131813
0.00105975
-0.00299185
-0.0210784
-0.0505421
-0.0796081
-0.0949658
-0.0909222
-0.0726031
-0.0507877
-0.0337447
-0.0213917
-0.0079995
0.011852
0.0389849
0.0687324
0.0946581
0.111184
0.116589
0.113685
0.1068
0.0982416
0.0880071
0.0763382
0.0656417
0.0584807
0.0533125
0.0487804
0.0460976
0.0465645
0.0490757
0.0508326
0.0516261
0.0541038
0.0581101
0.0601997
0.0609524
0.0628284
0.0650877
0.0656851
0.065207
0.0644129
0.0625205
0.0585846
0.053182
0.0470587
0.0401745
0.0329865
0.0268295
0.0223377
0.0197538
0.0197547
0.0223404
0.0268339
0.0329924
0.0401817
0.0470668
0.0531904
0.0585928
0.0625279
0.0644189
0.0652112
0.0656874
0.0650881
0.0628271
0.0609498
0.0601963
0.0581065
0.0541004
0.0516234
0.0508309
0.0490748
0.0465641
0.046098
0.0487814
0.0533135
0.0584813
0.0656418
0.0763381
0.0880072
0.0982418
0.106801
0.113686
0.116589
0.111185
0.094659
0.0687337
0.0389865
0.0118531
-0.00799936
-0.0213921
-0.033745
-0.0507875
-0.0726026
-0.0909216
-0.0949654
-0.0796074
-0.0505407
-0.0210765
-0.00299016
0.00106041
-0.000143447
-0.00678677
-0.0275508
-0.0590575
-0.0888071
-0.103348
-0.0977388
-0.0778642
-0.0545717
-0.0360345
-0.0224337
-0.00893596
0.00916207
0.0333994
0.0608791
0.0864958
0.104998
0.113685
0.114009
0.109791
0.102982
0.0940925
0.0842173
0.0754235
0.0694374
0.0642497
0.0589883
0.0561522
0.0574159
0.0607416
0.0635915
0.0666099
0.072258
0.0796342
0.0849256
0.0886663
0.0930145
0.0964102
0.0964221
0.0941844
0.0904794
0.08417
0.07484
0.0639802
0.0524821
0.0404557
0.0289089
0.0194982
0.0127768
0.00901068
0.00901119
0.0127785
0.0195013
0.0289132
0.0404611
0.0524885
0.0639873
0.0748471
0.0841766
0.090485
0.0941884
0.0964244
0.0964109
0.0930136
0.0886644
0.0849232
0.0796318
0.0722559
0.0666085
0.0635908
0.0607414
0.057416
0.0561525
0.0589888
0.0642499
0.0694371
0.0754228
0.0842166
0.0940923
0.102982
0.109791
0.114009
0.113686
0.104999
0.0864969
0.0608806
0.0334007
0.00916255
-0.00893656
-0.0224349
-0.0360352
-0.0545716
-0.0778634
-0.097738
-0.103348
-0.0888064
-0.0590561
-0.0275488
-0.00678486
-0.000142664
-0.00194166
-0.0121172
-0.0359305
-0.0693187
-0.0993794
-0.113046
-0.106397
-0.0858954
-0.0620504
-0.0423539
-0.0270287
-0.0123722
0.0051304
0.0270894
0.0520449
0.076411
0.0957475
0.1068
0.109791
0.107697
0.101955
0.0938506
0.0855545
0.07893
0.0747192
0.0702647
0.0649195
0.0621685
0.0638464
0.0671595
0.0701608
0.0743001
0.0817141
0.0909961
0.0984168
0.104415
0.110689
0.114927
0.114419
0.1107
0.104559
0.0946263
0.0809899
0.065865
0.0503102
0.0346508
0.020194
0.00864297
0.000537273
-0.00384769
-0.00384749
0.000538098
0.00864462
0.0201963
0.0346539
0.050314
0.0658695
0.0809947
0.094631
0.104564
0.110704
0.114422
0.114929
0.11069
0.104415
0.0984163
0.0909955
0.0817136
0.0742997
0.0701605
0.0671593
0.0638461
0.062168
0.0649191
0.0702641
0.0747182
0.0789288
0.0855538
0.0938507
0.101956
0.107698
0.109791
0.106801
0.0957481
0.0764121
0.0520462
0.0270902
0.00513005
-0.0123737
-0.0270305
-0.042355
-0.0620502
-0.0858945
-0.106396
-0.113045
-0.0993787
-0.0693172
-0.0359282
-0.012115
-0.00194075
-0.00386164
-0.0176449
-0.0442383
-0.0789661
-0.108791
-0.121437
-0.114156
-0.093874
-0.0704752
-0.0502701
-0.0332871
-0.0169084
0.000993932
0.0214805
0.0441036
0.0667036
0.085866
0.0982416
0.102982
0.101955
0.0960743
0.0875227
0.079675
0.0745551
0.072015
0.0687946
0.0643359
0.0626255
0.0653092
0.0689587
0.0722312
0.0770935
0.0852432
0.0949823
0.103062
0.109885
0.116724
0.120805
0.119418
0.114373
0.106461
0.0942246
0.0781256
0.0607132
0.0430615
0.0256773
0.00993956
-0.00260684
-0.0113521
-0.015933
-0.015933
-0.0113521
-0.00260666
0.00993974
0.0256775
0.043062
0.0607143
0.0781271
0.0942266
0.106464
0.114376
0.119421
0.120808
0.116726
0.109887
0.103064
0.0949835
0.0852439
0.0770935
0.0722307
0.0689577
0.065308
0.062624
0.0643345
0.0687932
0.0720136
0.0745541
0.0796747
0.0875231
0.096075
0.101956
0.102982
0.0982418
0.0858666
0.0667046
0.0441045
0.0214807
0.000992859
-0.0169104
-0.0332891
-0.0502712
-0.0704748
-0.0938728
-0.114155
-0.121436
-0.10879
-0.0789645
-0.0442358
-0.0176424
-0.00386061
-0.00541066
-0.0219909
-0.0504309
-0.0855579
-0.114441
-0.125847
-0.118282
-0.0990775
-0.0773322
-0.0578628
-0.0402283
-0.0225577
-0.00402383
0.0154965
0.036111
0.0567117
0.0749864
0.0880071
0.0940925
0.0938506
0.0875227
0.0778872
0.0694778
0.064893
0.0633861
0.0614607
0.0586948
0.0590318
0.0636096
0.0684784
0.0727721
0.0786373
0.08713
0.096255
0.103529
0.109492
0.115113
0.117563
0.114515
0.108016
0.0988532
0.0856331
0.0690717
0.0516527
0.0341494
0.0170869
0.001799
-0.0104502
-0.0190605
-0.0235184
-0.0235188
-0.0190614
-0.0104519
0.00179674
0.0170842
0.0341467
0.0516504
0.0690701
0.0856328
0.0988544
0.108019
0.114519
0.117567
0.115118
0.109497
0.103532
0.0962577
0.0871315
0.0786375
0.0727711
0.0684768
0.0636077
0.0590296
0.0586927
0.0614589
0.0633848
0.0648921
0.0694778
0.0778876
0.0875231
0.0938507
0.0940923
0.0880072
0.0749871
0.0567127
0.0361117
0.0154962
-0.00402535
-0.0225599
-0.0402302
-0.0578634
-0.0773314
-0.099076
-0.118281
-0.125846
-0.11444
-0.0855562
-0.0504282
-0.0219882
-0.00540953
-0.00633566
-0.0244559
-0.0535263
-0.0880456
-0.115394
-0.12551
-0.118126
-0.100883
-0.0819912
-0.0646589
-0.0477488
-0.0297633
-0.0109554
0.00775656
0.0266625
0.0453377
0.0626101
0.0763382
0.0842173
0.0855545
0.079675
0.0694778
0.0604854
0.0560006
0.0549136
0.0539652
0.0530317
0.0556384
0.0622952
0.0687228
0.0744035
0.0813916
0.0898014
0.0972413
0.102219
0.1056
0.108096
0.107208
0.101411
0.093004
0.0827094
0.0692705
0.0536538
0.0380628
0.0226353
0.00768248
-0.00547551
-0.0159333
-0.0234376
-0.0274185
-0.0274192
-0.0234398
-0.015937
-0.00548027
0.00767724
0.02263
0.038058
0.0536501
0.0692687
0.0827096
0.0930062
0.101415
0.107213
0.108102
0.105606
0.102224
0.0972452
0.0898036
0.0813921
0.0744026
0.0687212
0.0622932
0.0556362
0.0530295
0.0539634
0.0549124
0.0559998
0.0604851
0.0694778
0.0796747
0.0855539
0.0842166
0.0763381
0.0626107
0.0453386
0.0266628
0.0077558
-0.0109572
-0.0297655
-0.0477503
-0.064659
-0.08199
-0.100882
-0.118125
-0.125509
-0.115393
-0.0880436
-0.0535233
-0.024453
-0.00633443
-0.00674406
-0.0254097
-0.0542894
-0.0877083
-0.113444
-0.122545
-0.115766
-0.100914
-0.085349
-0.0708052
-0.055409
-0.0377347
-0.0187562
-0.000328118
0.0176246
0.0349062
0.0513013
0.0656417
0.0754235
0.07893
0.0745551
0.064893
0.0560006
0.0515756
0.0503138
0.049695
0.0500606
0.0543268
0.0623431
0.0697263
0.0762701
0.0838526
0.091446
0.0962002
0.0977149
0.0972492
0.0952487
0.0898203
0.0805649
0.0700013
0.0586464
0.0453322
0.0313678
0.0186855
0.00661339
-0.00492509
-0.0145053
-0.021645
-0.0268997
-0.0299153
-0.0299165
-0.0269031
-0.0216505
-0.014512
-0.00493205
0.00660662
0.0186794
0.0313631
0.0453294
0.0586457
0.0700027
0.0805683
0.0898254
0.0952548
0.0972553
0.0977206
0.0962049
0.0914491
0.083854
0.0762702
0.0697257
0.062342
0.0543252
0.0500588
0.0496935
0.0503127
0.0515748
0.0559998
0.0648921
0.0745541
0.0789288
0.0754228
0.0656418
0.0513021
0.0349069
0.0176244
-0.000329457
-0.0187583
-0.0377367
-0.0554101
-0.0708049
-0.0853475
-0.100912
-0.115764
-0.122544
-0.113443
-0.087706
-0.0542861
-0.0254066
-0.00674273
-0.00691692
-0.0256828
-0.0540461
-0.0862802
-0.11061
-0.119057
-0.113112
-0.100583
-0.0880468
-0.0760393
-0.0620826
-0.044643
-0.0250959
-0.0060602
0.0119801
0.0285887
0.0441446
0.0584807
0.0694374
0.0747192
0.072015
0.0633861
0.0549136
0.0503138
0.0482083
0.0471329
0.0479498
0.0528915
0.0610798
0.0682147
0.0745207
0.0818343
0.0880038
0.0896838
0.0875245
0.0831425
0.076694
0.066947
0.0547158
0.0426435
0.0309118
0.0183308
0.00658301
-0.00257289
-0.0105382
-0.0178094
-0.0228231
-0.0255566
-0.0276167
-0.0291466
-0.0291479
-0.0276207
-0.0255628
-0.0228305
-0.0178169
-0.0105453
-0.0025793
0.00657794
0.0183275
0.0309101
0.0426435
0.0547177
0.0669507
0.0766989
0.0831479
0.08753
0.0896887
0.0880077
0.0818369
0.0745223
0.0682156
0.0610799
0.0528907
0.0479483
0.0471314
0.0482071
0.0503127
0.0549124
0.0633847
0.0720136
0.0747182
0.0694371
0.0584813
0.0441456
0.0285893
0.0119794
-0.00606208
-0.0250982
-0.0446449
-0.0620835
-0.0760389
-0.0880454
-0.100581
-0.113111
-0.119056
-0.110609
-0.0862777
-0.0540425
-0.0256796
-0.00691555
-0.00687882
-0.0253502
-0.0528867
-0.083827
-0.106896
-0.114895
-0.109772
-0.0991441
-0.0889114
-0.0788218
-0.0660658
-0.0489548
-0.0289663
-0.00916207
0.0093074
0.0254556
0.0398934
0.0533125
0.0642497
0.0702647
0.0687946
0.0614607
0.0539652
0.049695
0.0471329
0.04583
0.0471049
0.0524553
0.0601637
0.0661093
0.0711019
0.0771488
0.0812505
0.0797192
0.0742064
0.0665999
0.0566691
0.0436997
0.0295764
0.0169514
0.005682
-0.00546744
-0.0145893
-0.0200883
-0.0238142
-0.0266216
-0.0270283
-0.0254472
-0.0242433
-0.0240878
-0.024089
-0.0242466
-0.0254522
-0.0270344
-0.0266282
-0.0238208
-0.0200944
-0.0145945
-0.0054715
0.00567912
0.0169499
0.0295764
0.0437013
0.056672
0.0666038
0.074211
0.0797241
0.0812553
0.0771528
0.0711051
0.0661117
0.0601648
0.052455
0.0471038
0.0458286
0.0471315
0.0496935
0.0539634
0.0614589
0.0687932
0.0702641
0.0642499
0.0533135
0.0398944
0.0254558
0.00930621
-0.0091643
-0.0289686
-0.0489564
-0.0660662
-0.0788211
-0.0889101
-0.0991426
-0.109771
-0.114894
-0.106894
-0.0838245
-0.0528833
-0.0253471
-0.00687753
-0.00613815
-0.0229951
-0.0486884
-0.0778518
-0.0997828
-0.107885
-0.104175
-0.0957346
-0.087806
-0.0796819
-0.0685059
-0.0524827
-0.032837
-0.0126054
0.0065008
0.0227494
0.0364703
0.0487804
0.0589883
0.0649195
0.0643359
0.0586948
0.0530317
0.0500606
0.0479498
0.0471049
0.0493463
0.0554147
0.0625798
0.0668571
0.0696585
0.0733255
0.0745112
0.069608
0.0612162
0.0513272
0.0391901
0.0244246
0.00963403
-0.00271861
-0.0129147
-0.0220541
-0.0282951
-0.0303632
-0.030214
-0.0290041
-0.0257888
-0.0213212
-0.0179207
-0.0164464
-0.016447
-0.0179223
-0.0213236
-0.0257924
-0.0290089
-0.0302195
-0.0303687
-0.0283003
-0.0220589
-0.0129186
-0.00272146
0.00963231
0.0244241
0.0391908
0.0513293
0.0612197
0.0696126
0.0745165
0.0733308
0.0696633
0.0668608
0.062582
0.0554152
0.0493457
0.0471038
0.0479484
0.0500588
0.0530295
0.0586927
0.0643345
0.0649191
0.0589888
0.0487813
0.0364708
0.0227488
0.00649894
-0.0126078
-0.0328389
-0.0524835
-0.0685056
-0.0796808
-0.0878045
-0.0957332
-0.104174
-0.107884
-0.0997814
-0.0778495
-0.0486854
-0.0229923
-0.00613701
-0.00444612
-0.0178904
-0.0403446
-0.0670328
-0.0879783
-0.0970913
-0.0960496
-0.0909785
-0.0862926
-0.080911
-0.0721042
-0.0580132
-0.0393288
-0.0187305
0.00166173
0.0193121
0.0337779
0.0460976
0.0561522
0.0621685
0.0626255
0.0590318
0.0556384
0.0543268
0.0528915
0.0524553
0.0554147
0.0617821
0.0678077
0.0696954
0.0692873
0.0692336
0.0663602
0.0576624
0.046576
0.03504
0.0217929
0.00666579
-0.00753951
-0.018881
-0.0275359
-0.0341941
-0.0373932
-0.0364251
-0.0330721
-0.028744
-0.0234322
-0.0180931
-0.0141593
-0.0121557
-0.0121556
-0.0141589
-0.0180927
-0.0234328
-0.0287464
-0.0330758
-0.0364295
-0.0373981
-0.0341993
-0.0275407
-0.018885
-0.00754286
0.00666322
0.0217917
0.0350405
0.0465783
0.0576663
0.0663655
0.0692395
0.0692929
0.0697001
0.067811
0.0617837
0.0554151
0.052455
0.0528907
0.0543252
0.0556362
0.0590296
0.0626241
0.062168
0.0561525
0.046098
0.0337775
0.0193106
0.00165931
-0.0187329
-0.0393302
-0.0580133
-0.0721033
-0.0809095
-0.086291
-0.090977
-0.0960482
-0.09709
-0.0879768
-0.0670307
-0.040342
-0.017888
-0.00444515
-0.00234117
-0.0115716
-0.0301326