/*--------------------------------*- C++ -*----------------------------------*\
  =========                 |
  \\      /  F ield         | OpenFOAM: The Open Source CFD Toolbox
   \\    /   O peration     | Website:  https://openfoam.org
    \\  /    A nd           | Version:  10
     \\/     M anipulation  |
\*---------------------------------------------------------------------------*/
FoamFile
{
    format      ascii;
    class       volScalarField;
    location    "11";
    object      h;
}
// * * * * * * * * * * * * * * * * * * * * * * * * * * * * * * * * * * * * * //

dimensions      [0 1 0 0 0 0 0];

internalField   nonuniform List<scalar> 
10000
(
1.29372e-23
1.0938e-22
7.77794e-22
5.313e-21
3.49089e-20
2.20445e-19
1.33677e-18
7.77705e-18
4.33685e-17
2.31594e-16
1.18318e-15
5.77728e-15
2.69346e-14
1.19778e-13
5.07562e-13
2.04746e-12
7.85483e-12
2.86317e-11
9.90752e-11
3.25195e-10
1.01177e-09
2.98218e-09
8.32381e-09
2.19968e-08
5.50374e-08
1.30419e-07
2.92861e-07
6.23739e-07
1.26148e-06
2.42628e-06
4.44573e-06
7.7758e-06
1.30099e-05
2.08688e-05
3.21663e-05
4.77485e-05
6.84085e-05
9.47838e-05
0.000127247
0.000165802
0.000209998
0.000258882
0.000310992
0.000364401
0.000416825
0.000465765
0.000508696
0.00054327
0.000567516
0.00058001
0.000580007
0.000567507
0.000543256
0.000508677
0.000465743
0.000416801
0.000364376
0.000310966
0.000258857
0.000209974
0.00016578
0.000127228
9.47677e-05
6.83952e-05
4.7738e-05
3.21583e-05
2.08628e-05
1.30057e-05
7.77297e-06
4.4439e-06
2.42515e-06
1.26082e-06
6.23368e-07
2.92665e-07
1.30321e-07
5.4991e-08
2.19761e-08
8.31506e-09
2.97869e-09
1.01046e-09
3.24731e-10
9.89194e-11
2.85822e-11
7.83999e-12
2.04324e-12
5.06424e-13
1.19487e-13
2.68637e-14
5.76086e-15
1.17956e-15
2.30832e-16
4.32155e-17
7.74768e-18
1.33138e-18
2.19497e-19
3.4749e-20
5.28714e-21
7.73775e-22
1.08781e-22
1.28626e-23
1.0938e-22
9.14189e-22
6.41274e-21
4.31943e-20
2.79761e-19
1.74087e-18
1.03988e-17
5.95722e-17
3.26994e-16
1.71812e-15
8.63305e-15
4.14417e-14
1.89862e-13
8.29323e-13
3.45031e-12
1.36587e-11
5.13989e-11
1.83692e-10
6.22936e-10
2.00297e-09
6.10234e-09
1.76068e-08
4.80925e-08
1.24346e-07
3.04367e-07
7.05579e-07
1.55018e-06
3.23113e-06
6.39793e-06
1.20545e-05
2.16523e-05
3.71549e-05
6.10465e-05
9.62596e-05
0.000146008
0.000213524
0.000301716
0.00041277
0.000547754
0.000706244
0.000886051
0.00108308
0.00129135
0.00150325
0.00170989
0.00190174
0.00206927
0.00220372
0.00229776
0.00234614
0.00234613
0.00229773
0.00220367
0.00206921
0.00190166
0.0017098
0.00150316
0.00129126
0.00108299
0.000885962
0.000706163
0.000547682
0.000412708
0.000301664
0.000213482
0.000145976
9.62352e-05
6.10289e-05
3.71428e-05
2.16443e-05
1.20494e-05
6.39489e-06
3.22939e-06
1.54924e-06
7.05095e-07
3.04132e-07
1.24239e-07
4.8046e-08
1.75878e-08
6.09504e-09
2.00032e-09
6.22027e-10
1.83397e-10
5.13084e-11
1.36324e-11
3.44308e-12
8.27434e-13
1.89393e-13
4.13311e-14
8.6082e-15
1.7128e-15
3.25906e-16
5.93599e-17
1.03592e-17
1.73379e-18
2.78547e-19
4.29951e-20
6.38132e-21
9.0944e-22
1.08781e-22
7.77794e-22
6.41274e-21
4.42599e-20
2.93171e-19
1.86643e-18
1.14109e-17
6.69345e-17
3.76356e-16
2.02651e-15
1.04394e-14
5.13973e-14
2.41603e-13
1.08321e-12
4.62725e-12
1.88142e-11
7.27374e-11
2.67125e-10
9.30998e-10
3.07671e-09
9.63375e-09
2.85626e-08
8.01468e-08
2.12785e-07
5.34497e-07
1.27058e-06
2.85987e-06
6.10039e-06
1.23471e-05
2.37486e-05
4.34888e-05
7.59795e-05
0.000126938
0.000203285
0.00031283
0.00046372
0.000663686
0.000919155
0.0012343
0.00161011
0.0020437
0.00252776
0.00305045
0.00359571
0.00414391
0.00467297
0.0051598
0.00558178
0.00591844
0.00615294
0.00627329
0.00627327
0.00615288
0.00591834
0.00558164
0.00515963
0.00467278
0.0041437
0.00359549
0.00305024
0.00252755
0.00204351
0.00160994
0.00123414
0.000919023
0.000663576
0.000463632
0.000312763
0.000203235
0.000126902
7.59552e-05
4.34729e-05
2.37387e-05
1.23413e-05
6.09712e-06
2.85813e-06
1.26971e-06
5.34083e-07
2.126e-07
8.00689e-08
2.85317e-08
9.62216e-09
3.07261e-09
9.2963e-10
2.66693e-10
7.26085e-11
1.87777e-11
4.6175e-12
1.08073e-12
2.41003e-13
5.12595e-14
1.04092e-14
2.02021e-15
3.751e-16
6.66952e-17
1.13673e-17
1.85882e-18
2.91898e-19
4.40556e-20
6.38132e-21
7.73774e-22
5.313e-21
4.31943e-20
2.93171e-19
1.90857e-18
1.19362e-17
7.165e-17
4.12439e-16
2.27445e-15
1.20043e-14
6.05768e-14
2.91966e-13
1.34264e-12
5.88471e-12
2.45567e-11
9.7461e-11
3.67501e-10
1.31527e-09
4.46366e-09
1.43518e-08
4.36853e-08
1.25808e-07
3.42637e-07
8.82322e-07
2.14837e-06
4.94807e-06
1.07873e-05
2.22844e-05
4.36836e-05
8.1402e-05
0.000144495
0.000244897
0.000397295
0.000618538
0.00092656
0.00133886
0.00187069
0.00253307
0.00333093
0.00426143
0.0053129
0.00646436
0.00768581
0.00893943
0.0101814
0.0113646
0.0124411
0.0133654
0.0140975
0.0146046
0.014864
0.014864
0.0146045
0.0140973
0.0133652
0.0124408
0.0113642
0.010181
0.00893901
0.00768539
0.00646394
0.0053125
0.00426105
0.00333059
0.00253278
0.00187044
0.00133865
0.000926394
0.000618411
0.000397202
0.000244831
0.00014445
8.13729e-05
4.36658e-05
2.2274e-05
1.07816e-05
4.94508e-06
2.14689e-06
8.81639e-07
3.42339e-07
1.25685e-07
4.36378e-08
1.43345e-08
4.45769e-09
1.31333e-09
3.66904e-10
9.72875e-11
2.45089e-11
5.87225e-12
1.33955e-12
2.91238e-13
6.04138e-14
1.19695e-14
2.26736e-15
4.11059e-16
7.13935e-17
1.18905e-17
1.90079e-18
2.91898e-19
4.29951e-20
5.28712e-21
3.49089e-20
2.79761e-19
1.86643e-18
1.19362e-17
7.32927e-17
4.31734e-16
2.43734e-15
1.31743e-14
6.81097e-14
3.36439e-13
1.5862e-12
7.12999e-12
3.05229e-11
1.24305e-10
4.81064e-10
1.76727e-09
6.15665e-09
2.03191e-08
6.34747e-08
1.87546e-07
5.238e-07
1.38232e-06
3.44645e-06
8.11946e-06
1.80839e-05
3.81102e-05
7.60901e-05
0.000144169
0.000259745
0.000446033
0.000731893
0.00115071
0.00173832
0.00253003
0.00355715
0.00484319
0.00640034
0.00822646
0.010303
0.0125941
0.0150472
0.0175954
0.0201604
0.0226568
0.0249973
0.0270976
0.0288801
0.0302786
0.0312411
0.0317314
0.0317313
0.0312409
0.0302784
0.0288797
0.0270971
0.0249968
0.0226561
0.0201597
0.0175947
0.0150465
0.0125933
0.0103023
0.00822581
0.00639975
0.00484267
0.00355671
0.00252967
0.00173803
0.00115049
0.000731728
0.000445917
0.000259666
0.000144119
7.60597e-05
3.80927e-05
1.80743e-05
8.11458e-06
3.44409e-06
1.38125e-06
5.23344e-07
1.87363e-07
6.34055e-08
2.02944e-08
6.14837e-09
1.76465e-09
4.80279e-10
1.24083e-10
3.04633e-11
7.11484e-12
1.58254e-12
3.35599e-13
6.7926e-14
1.3136e-14
2.42973e-15
4.30289e-16
7.30302e-17
1.18905e-17
1.85882e-18
2.78547e-19
3.47489e-20
2.20445e-19
1.74087e-18
1.14109e-17
7.165e-17
4.31734e-16
2.49417e-15
1.38011e-14
7.30687e-14
3.69764e-13
1.78658e-12
8.23272e-12
3.61408e-11
1.5097e-10
5.99416e-10
2.25952e-09
8.07744e-09
2.73551e-08
8.76756e-08
2.65709e-07
7.60844e-07
2.05729e-06
5.25116e-06
1.26518e-05
2.87805e-05
6.18556e-05
0.000125735
0.000242091
0.000442361
0.000768854
0.00127441
0.00202021
0.00307173
0.0044931
0.00634065
0.00865619
0.0114609
0.0147505
0.0184922
0.0226236
0.0270553
0.0316741
0.0363504
0.0409454
0.0453189
0.0493374
0.0528794
0.0558404
0.0581357
0.0597013
0.0604946
0.0604945
0.0597011
0.0581354
0.0558401
0.0528789
0.0493368
0.0453182
0.0409445
0.0363495
0.0316731
0.0270542
0.0226226
0.0184911
0.0147495
0.01146
0.00865537
0.00633994
0.00449251
0.00307126
0.00201985
0.00127414
0.000768663
0.000442233
0.00024201
0.000125686
6.18276e-05
2.87655e-05
1.26442e-05
5.24759e-06
2.0557e-06
7.60181e-07
2.6545e-07
8.75797e-08
2.73218e-08
8.06655e-09
2.25616e-09
5.98435e-10
1.507e-10
3.607e-11
8.21517e-12
1.78245e-12
3.68839e-13
7.28714e-14
1.37609e-14
2.48638e-15
4.30289e-16
7.13935e-17
1.13673e-17
1.73379e-18
2.19496e-19
1.33677e-18
1.03988e-17
6.69345e-17
4.12439e-16
2.43734e-15
1.38011e-14
7.48002e-14
3.87636e-13
1.91868e-12
9.06039e-12
4.07716e-11
1.74632e-10
7.11101e-10
2.74955e-09
1.00833e-08
3.50307e-08
1.15166e-07
3.57915e-07
1.05056e-06
2.91015e-06
7.60362e-06
1.87331e-05
4.35198e-05
9.53733e-05
0.000197326
0.000385933
0.000714777
0.00125636
0.00210117
0.00335329
0.00512244
0.00751362
0.0106155
0.0144891
0.0191586
0.0246041
0.0307587
0.0375093
0.044702
0.0521517
0.0596545
0.067002
0.0739945
0.0804519
0.0862215
0.0911812
0.0952388
0.0983293
0.10041
0.101456
0.101456
0.10041
0.0983292
0.0952386
0.0911809
0.0862212
0.0804514
0.0739938
0.0670012
0.0596535
0.0521505
0.0447007
0.0375079
0.0307573
0.0246028
0.0191574
0.014488
0.0106144
0.00751274
0.00512172
0.00335272
0.00210075
0.00125606
0.000714578
0.000385806
0.00019725
9.53308e-05
4.34974e-05
1.87219e-05
7.59847e-06
2.9079e-06
1.04964e-06
3.57565e-07
1.1504e-07
3.49879e-08
1.00696e-08
2.74544e-09
7.09934e-10
1.74318e-10
4.06916e-11
9.04105e-12
1.91424e-12
3.86665e-13
7.4598e-14
1.37609e-14
2.42973e-15
4.11059e-16
6.66952e-17
1.03592e-17
1.33137e-18
7.77705e-18
5.95722e-17
3.76356e-16
2.27445e-15
1.31743e-14
7.30687e-14
3.87636e-13
1.96483e-12
9.50471e-12
4.38282e-11
1.92418e-10
8.03308e-10
3.18509e-09
1.19791e-08
4.2682e-08
1.439e-07
4.58534e-07
1.37946e-06
3.91436e-06
1.04687e-05
2.63733e-05
6.25708e-05
0.000139816
0.000294408
0.000584773
0.00109731
0.00194922
0.00328598
0.00527241
0.0080775
0.0118555
0.0167263
0.0227575
0.0299517
0.0382391
0.0474762
0.0574529
0.0679051
0.0785354
0.0890366
0.0991172
0.108523
0.117052
0.124563
0.130976
0.13626
0.140421
0.143492
0.14551
0.14651
0.14651
0.14551
0.143492
0.140422
0.13626
0.130977
0.124564
0.117052
0.108523
0.0991168
0.0890361
0.0785345
0.067904
0.0574515
0.0474747
0.0382375
0.0299501
0.0227559
0.0167249
0.0118543
0.00807647
0.00527159
0.00328537
0.00194878
0.00109702
0.000584588
0.000294298
0.000139754
6.25389e-05
2.63578e-05
1.04616e-05
3.91135e-06
1.37826e-06
4.58085e-07
1.43742e-07
4.26298e-08
1.19628e-08
3.18033e-09
8.01987e-10
1.92072e-10
4.37421e-11
9.4844e-12
1.96028e-12
3.86665e-13
7.28714e-14
1.3136e-14
2.26736e-15
3.751e-16
5.93599e-17
7.74766e-18
4.33685e-17
3.26994e-16
2.02651e-15
1.20043e-14
6.81097e-14
3.69764e-13
1.91868e-12
9.50471e-12
4.48968e-11
2.01974e-10
8.64236e-10
3.51286e-09
1.35461e-08
4.94897e-08
1.71079e-07
5.58858e-07
1.72305e-06
5.00837e-06
1.37108e-05
3.53228e-05
8.55922e-05
0.000195034
0.000417994
0.000843155
0.0016027
0.00287593
0.00488325
0.00786837
0.0120703
0.0176903
0.0248596
0.033615
0.0438838
0.0554801
0.0681126
0.0814025
0.0949122
0.108183
0.120777
0.132319
0.14253
0.151241
0.158405
0.164076
0.168391
0.171538
0.173726
0.17516
0.176011
0.176404
0.176404
0.176011
0.175161
0.173728
0.171539
0.168393
0.164078
0.158407
0.151243
0.142531
0.13232
0.120778
0.108183
0.0949117
0.0814015
0.0681113
0.0554785
0.043882
0.0336132
0.0248579
0.0176887
0.012069
0.00786726
0.0048824
0.00287532
0.00160228
0.000842895
0.000417841
0.00019495
8.5549e-05
3.53021e-05
1.37016e-05
5.00452e-06
1.72155e-06
5.5831e-07
1.70891e-07
4.94291e-08
1.35277e-08
3.5076e-09
8.62813e-10
2.01611e-10
4.48086e-11
9.4844e-12
1.91424e-12
3.68839e-13
6.7926e-14
1.19695e-14
2.02021e-15
3.25906e-16
4.32154e-17
2.31594e-16
1.71812e-15
1.04394e-14
6.05768e-14
3.36439e-13
1.78658e-12
9.06039e-12
4.38282e-11
2.01974e-10
8.85548e-10
3.6891e-09
1.45823e-08
5.46167e-08
1.93556e-07
6.48135e-07
2.04789e-06
6.09761e-06
1.70885e-05
4.50277e-05
0.000111461
0.00025906
0.000565239
0.00115811
0.00223005
0.0040417
0.00690888
0.0111693
0.0171326
0.0250252
0.0349421
0.0468166
0.0604105
0.075325
0.0910266
0.106887
0.122233
0.136415
0.148866
0.159167
0.167088
0.172601
0.175866
0.177196
0.177005
0.175755
0.173907
0.171883
0.17004
0.168657
0.167918
0.167918
0.168657
0.170042
0.171884
0.173909
0.175758
0.177008
0.177199
0.175869
0.172604
0.167091
0.15917
0.148868
0.136416
0.122234
0.106887
0.091026
0.0753238
0.0604089
0.0468147
0.0349402
0.0250233
0.0171309
0.0111679
0.00690778
0.00404089
0.0022295
0.00115776
0.000565036
0.00025895
0.000111406
4.50016e-05
1.7077e-05
6.09294e-06
2.0461e-06
6.47499e-07
1.93343e-07
5.45497e-08
1.45625e-08
3.68357e-09
8.8409e-10
2.01611e-10
4.37421e-11
9.04105e-12
1.78245e-12
3.35599e-13
6.04138e-14
1.04092e-14
1.7128e-15
2.30831e-16
1.18318e-15
8.63305e-15
5.13973e-14
2.91966e-13
1.5862e-12
8.23272e-12
4.07716e-11
1.92418e-10
8.64236e-10
3.6891e-09
1.49449e-08
5.73746e-08
2.08426e-07
7.15378e-07
2.31643e-06
7.0658e-06
2.02744e-05
5.46528e-05
0.000138248
0.000327868
0.000728593
0.0015169
0.00295995
0.00541895
0.009324
0.0151151
0.023158
0.0336565
0.0465864
0.0616679
0.0783787
0.0959961
0.113659
0.130436
0.145413
0.157775
0.166907
0.172464
0.174418
0.173041
0.168862
0.16257
0.154929
0.146688
0.138518
0.130979
0.124504
0.119409
0.115908
0.114127
0.114127
0.115908
0.11941
0.124505
0.13098
0.13852
0.14669
0.154932
0.162574
0.168866
0.173046
0.174422
0.172469
0.166911
0.157778
0.145415
0.130438
0.113659
0.0959959
0.0783776
0.0616664
0.0465845
0.0336545
0.0231561
0.0151134
0.00932262
0.00541793
0.00295925
0.00151646
0.000728337
0.000327731
0.00013818
5.46212e-05
2.02608e-05
7.06039e-06
2.31441e-06
7.14675e-07
2.08196e-07
5.73042e-08
1.49246e-08
3.68357e-09
8.62813e-10
1.92072e-10
4.06916e-11
8.21517e-12
1.58254e-12
2.91238e-13
5.12595e-14
8.6082e-15
1.17956e-15
5.77728e-15
4.14417e-14
2.41603e-13
1.34264e-12
7.12999e-12
3.61408e-11
1.74632e-10
8.03308e-10
3.51286e-09
1.45823e-08
5.73746e-08
2.1363e-07
7.51551e-07
2.49403e-06
7.79441e-06
2.29036e-05
6.31815e-05
0.000163387
0.000395589
0.00089586
0.00189644
0.00375223
0.00694242
0.0120266
0.0195467
0.0298924
0.0431691
0.0591175
0.0771095
0.0962138
0.115301
0.133155
0.148585
0.16052
0.168129
0.170927
0.168857
0.162313
0.15208
0.139207
0.124838
0.110066
0.0958131
0.0827698
0.0713881
0.0619093
0.0544158
0.048889
0.0452639
0.0434721
0.0434719
0.0452635
0.0488884
0.054415
0.0619085
0.0713875
0.0827696
0.0958135
0.110067
0.12484
0.13921
0.152084
0.162318
0.168862
0.170932
0.168134
0.160524
0.148588
0.133157
0.115302
0.0962136
0.0771085
0.0591159
0.0431671
0.0298903
0.0195448
0.0120249
0.00694118
0.00375138
0.0018959
0.00089555
0.000395425
0.000163307
6.3145e-05
2.28883e-05
7.78844e-06
2.49186e-06
7.50813e-07
2.13395e-07
5.73042e-08
1.45625e-08
3.5076e-09
8.01987e-10
1.74318e-10
3.607e-11
7.11484e-12
1.33955e-12
2.41003e-13
4.13311e-14
5.76085e-15
2.69346e-14
1.89862e-13
1.08321e-12
5.88471e-12
3.05229e-11
1.5097e-10
7.11101e-10
3.18509e-09
1.35461e-08
5.46167e-08
2.08426e-07
7.51551e-07
2.55618e-06
8.18616e-06
2.46403e-05
6.95851e-05
0.000184053
0.000455228
0.00105139
0.00226495
0.00454799
0.00851137
0.0148548
0.0242145
0.0369566
0.0529909
0.071686
0.0919263
0.112281
0.131208
0.147232
0.15907
0.165723
0.166585
0.161549
0.151088
0.136241
0.118464
0.0993923
0.0805707
0.0632429
0.0482343
0.0359376
0.0263762
0.0193088
0.0143432
0.0110357
0.00896654
0.00778998
0.00726362
0.00726334
0.00778916
0.00896518
0.0110338
0.0143408
0.0193061
0.0263733
0.0359349
0.0482319
0.0632412
0.08057
0.0993929
0.118466
0.136244
0.151093
0.161554
0.166591
0.165728
0.159074
0.147236
0.13121
0.112282
0.0919262
0.0716848
0.052989
0.0369544
0.0242123
0.014853
0.00850993
0.004547
0.00226432
0.00105103
0.000455041
0.000183963
6.95451e-05
2.46239e-05
8.1799e-06
2.55396e-06
7.50813e-07
2.08196e-07
5.45497e-08
1.35277e-08
3.18033e-09
7.09934e-10
1.507e-10
3.04633e-11
5.87225e-12
1.08073e-12
1.89393e-13
2.68636e-14
1.19778e-13
8.29323e-13
4.62725e-12
2.45567e-11
1.24305e-10
5.99416e-10
2.74955e-09
1.19791e-08
4.94897e-08
1.93556e-07
7.15378e-07
2.49403e-06
8.18616e-06
2.52477e-05
7.30234e-05
0.000197668
0.000499806
0.00117832
0.00258593
0.00527598
0.00999947
0.0176031
0.0288057
0.0438978
0.0624883
0.0834351
0.105021
0.125295
0.142421
0.154901
0.161667
0.162093
0.156045
0.143979
0.127024
0.106928
0.0858033
0.0657345
0.0483955
0.0348092
0.0252984
0.0195973
0.0170507
0.0168255
0.0180827
0.0200886
0.022266
0.0242003
0.0256197
0.0263653
0.0263652
0.0256195
0.0241998
0.0222651
0.0200873
0.0180808
0.0168229
0.0170475
0.0195935
0.0252944
0.0348053
0.0483922
0.0657323
0.0858026
0.106929
0.127027
0.143983
0.156049
0.162098
0.161672
0.154906
0.142424
0.125297
0.105022
0.0834347
0.0624869
0.0438957
0.0288034
0.0176011
0.00999786
0.00527485
0.00258523
0.00117792
0.000499602
0.000197571
7.29814e-05
2.52309e-05
8.1799e-06
2.49186e-06
7.14675e-07
1.93343e-07
4.94291e-08
1.19628e-08
2.74544e-09
5.98435e-10
1.24083e-10
2.45089e-11
4.6175e-12
8.27434e-13
1.19486e-13
5.07562e-13
3.45031e-12
1.88142e-11
9.7461e-11
4.81064e-10
2.25952e-09
1.00833e-08
4.2682e-08
1.71079e-07
6.48135e-07
2.31643e-06
7.79441e-06
2.46403e-05
7.30234e-05
0.000202423
0.000523676
0.00126154
0.00282392
0.00586265
0.011271
0.020047
0.0329843
0.050255
0.0710734
0.0936682
0.115652
0.134623
0.148696
0.156715
0.158186
0.153106
0.141897
0.125517
0.1056
0.0844145
0.0644814
0.0479985
0.0363287
0.0297948
0.0278091
0.0292137
0.0326685
0.0369617
0.0411883
0.0448008
0.0475688
0.0494928
0.0507049
0.0513816
0.0516764
0.0516767
0.0513823
0.0507061
0.0494942
0.0475704
0.0448022
0.0411894
0.036962
0.0326678
0.0292119
0.0278062
0.0297911
0.0363247
0.0479949
0.0644788
0.0844134
0.105601
0.125519
0.1419
0.15311
0.158191
0.15672
0.1487
0.134627
0.115654
0.0936686
0.0710724
0.0502531
0.032982
0.0200448
0.0112692
0.00586143
0.00282316
0.00126111
0.000523462
0.000202325
7.29814e-05
2.46239e-05
7.78844e-06
2.31441e-06
6.47499e-07
1.70891e-07
4.26298e-08
1.00696e-08
2.25616e-09
4.80279e-10
9.72875e-11
1.87777e-11
3.44308e-12
5.06423e-13
2.04746e-12
1.36587e-11
7.27374e-11
3.67501e-10
1.76727e-09
8.07744e-09
3.50307e-08
1.439e-07
5.58858e-07
2.04789e-06
7.0658e-06
2.29036e-05
6.95851e-05
0.000197668
0.000523676
0.00129053
0.00295073
0.00624394
0.0122004
0.0219725
0.0364329
0.0556174
0.0782864
0.101958
0.123552
0.140362
0.150785
0.154417
0.151633
0.143088
0.129526
0.111997
0.0922076
0.0725751
0.0557303
0.0436688
0.0370786
0.0352461
0.0365105
0.0389341
0.0408727
0.0412931
0.0398275
0.0366476
0.0322668
0.0273466
0.0225482
0.0184425
0.0154656
0.0139061
0.0139064
0.0154664
0.0184439
0.0225502
0.0273492
0.03227
0.0366512
0.0398313
0.0412967
0.0408756
0.0389359
0.0365109
0.0352449
0.0370762
0.0436658
0.0557276
0.0725733
0.0922071
0.111998
0.129528
0.14309
0.151637
0.154421
0.150789
0.140366
0.123554
0.101959
0.0782859
0.0556157
0.0364306
0.0219702
0.0121985
0.00624265
0.00294994
0.0012901
0.000523462
0.000197571
6.95451e-05
2.28883e-05
7.06039e-06
2.0461e-06
5.5831e-07
1.43742e-07
3.49879e-08
8.06655e-09
1.76465e-09
3.66904e-10
7.26085e-11
1.36324e-11
2.04324e-12
7.85483e-12
5.13989e-11
2.67125e-10
1.31527e-09
6.15665e-09
2.73551e-08
1.15166e-07
4.58534e-07
1.72305e-06
6.09761e-06
2.02744e-05
6.31815e-05
0.000184053
0.000499806
0.00126154
0.00295073
0.00637619
0.0126912
0.0232044
0.0388879
0.0596634
0.0838316
0.108165
0.128899
0.143185
0.150046
0.15019
0.144978
0.135448
0.122088
0.105377
0.0865828
0.0680352
0.0524605
0.0416965
0.0357469
0.0328704
0.0305499
0.0265873
0.019754
0.00990791
-0.00226611
-0.0156669
-0.029142
-0.0417198
-0.0527098
-0.0616964
-0.0684797
-0.0729962
-0.0752475
-0.0752476
-0.0729965
-0.06848
-0.0616967
-0.0527098
-0.0417193
-0.0291407
-0.0156647
-0.00226295
0.00991186
0.0197583
0.0265914
0.0305529
0.0328719
0.0357468
0.0416952
0.0524589
0.0680343
0.0865828
0.105378
0.122089
0.13545
0.144981
0.150193
0.15005
0.14319
0.128902
0.108167
0.0838316
0.0596618
0.0388856
0.0232021
0.0126893
0.00637489
0.00294994
0.00126111
0.000499602
0.000183963
6.3145e-05
2.02608e-05
6.09294e-06
1.72155e-06
4.58085e-07
1.1504e-07
2.73218e-08
6.14837e-09
1.31333e-09
2.66693e-10
5.13084e-11
7.83998e-12
2.86317e-11
1.83692e-10
9.30998e-10
4.46366e-09
2.03191e-08
8.76756e-08
3.57915e-07
1.37946e-06
5.00837e-06
1.70885e-05
5.46528e-05
0.000163387
0.000455228
0.00117832
0.00282392
0.00624394
0.0126912
0.0236283
0.0401632
0.062173
0.0875623
0.112375
0.132169
0.144055
0.14794
0.145891
0.140166
0.131642
0.11977
0.103828
0.0844033
0.063951
0.045806
0.0321698
0.0226828
0.0147767
0.00542902
-0.00718431
-0.0231676
-0.0413156
-0.0598593
-0.0771535
-0.0920761
-0.104112
-0.113255
-0.119828
-0.124302
-0.127166
-0.12883
-0.129588
-0.129588
-0.128831
-0.127167
-0.124304
-0.11983
-0.113257
-0.104115
-0.0920785
-0.0771551
-0.0598597
-0.0413145
-0.0231651
-0.00718098
0.00543238
0.0147791
0.0226838
0.0321697
0.0458056
0.0639513
0.0844046
0.10383
0.119771
0.131644
0.140168
0.145892
0.147944
0.144059
0.132173
0.112378
0.0875626
0.0621716
0.0401609
0.023626
0.0126893
0.00624265
0.00282316
0.00117792
0.000455041
0.000163307
5.46212e-05
1.7077e-05
5.00452e-06
1.37826e-06
3.57565e-07
8.75797e-08
2.02944e-08
4.45769e-09
9.2963e-10
1.83397e-10
2.85822e-11
9.90752e-11
6.22936e-10
3.07671e-09
1.43518e-08
6.34747e-08
2.65709e-07
1.05056e-06
3.91436e-06
1.37108e-05
4.50277e-05
0.000138248
0.000395589
0.00105139
0.00258593
0.00586265
0.0122004
0.0232044
0.0401632
0.0630227
0.0894304
0.114782
0.133933
0.143927
0.145638
0.142596
0.137773
0.131241
0.12068
0.103865
0.0809793
0.0553062
0.0316483
0.0132484
-0.000376138
-0.0126924
-0.0272133
-0.0450575
-0.0648408
-0.0841005
-0.100607
-0.113072
-0.121287
-0.125817
-0.127587
-0.127577
-0.126616
-0.125315
-0.124082
-0.123156
-0.122667
-0.122667
-0.123157
-0.124083
-0.125316
-0.126617
-0.127579
-0.12759
-0.12582
-0.121291
-0.113076
-0.100611
-0.0841027
-0.0648413
-0.0450564
-0.0272112
-0.0126906
-0.000375569
0.0132479
0.0316479
0.0553072
0.080982
0.103868
0.120683
0.131242
0.137774
0.142597
0.14564
0.143931
0.133937
0.114784
0.0894309
0.0630213
0.0401609
0.0232021
0.0121985
0.00586143
0.00258523
0.00105103
0.000395425
0.00013818
4.50016e-05
1.37016e-05
3.91135e-06
1.04964e-06
2.6545e-07
6.34055e-08
1.43345e-08
3.07261e-09
6.22027e-10
9.89192e-11
3.25195e-10
2.00297e-09
9.63375e-09
4.36853e-08
1.87546e-07
7.60844e-07
2.91015e-06
1.04687e-05
3.53228e-05
0.000111461
0.000327868
0.00089586
0.00226495
0.00527598
0.011271
0.0219725
0.0388879
0.062173
0.0894304
0.115561
0.134678
0.143548
0.143853
0.140581
0.137296
0.132795
0.122497
0.102782
0.0741943
0.0416871
0.0121497
-0.0098417
-0.0250988
-0.0385548
-0.0546401
-0.0737417
-0.092805
-0.108471
-0.118998
-0.124349
-0.125672
-0.124548
-0.122325
-0.119911
-0.117808
-0.116167
-0.114995
-0.11421
-0.113737
-0.113515
-0.113515
-0.113737
-0.11421
-0.114995
-0.116167
-0.117809
-0.119912
-0.122326
-0.12455
-0.125675
-0.124352
-0.119002
-0.108474
-0.0928075
-0.0737423
-0.0546392
-0.0385539
-0.0250993
-0.00984351
0.0121482
0.0416877
0.0741976
0.102787
0.122501
0.132798
0.137297
0.140581
0.143855
0.143551
0.134682
0.115563
0.0894309
0.0621716
0.0388856
0.0219702
0.0112692
0.00527485
0.00226432
0.00089555
0.000327731
0.000111406
3.53021e-05
1.04616e-05
2.9079e-06
7.60181e-07
1.87363e-07
4.36378e-08
9.62216e-09
2.00032e-09
3.2473e-10
1.01177e-09
6.10234e-09
2.85626e-08
1.25808e-07
5.238e-07
2.05729e-06
7.60362e-06
2.63733e-05
8.55922e-05
0.00025906
0.000728593
0.00189644
0.00454799
0.00999947
0.020047
0.0364329
0.0596634
0.0875623
0.114782
0.134678
0.143371
0.142911
0.139611
0.137756
0.134815
0.123745
0.0998669
0.0649765
0.0262293
-0.00760224
-0.0309747
-0.0454148
-0.0578881
-0.0741101
-0.0935793
-0.111141
-0.122613
-0.127579
-0.127746
-0.125238
-0.121841
-0.118478
-0.11533
-0.112363
-0.109464
-0.106611
-0.103961
-0.101681
-0.10002
-0.0991348
-0.099135
-0.10002
-0.101682
-0.103962
-0.106613
-0.109466
-0.112364
-0.115332
-0.11848
-0.121843
-0.125241
-0.127749
-0.127583
-0.122618
-0.111145
-0.0935811
-0.0741097
-0.0578873
-0.0454158
-0.0309778
-0.00760518
0.0262288
0.0649795
0.0998724
0.123751
0.134818
0.137757
0.139611
0.142913
0.143375
0.134682
0.114784
0.0875626
0.0596618
0.0364306
0.0200448
0.00999786
0.004547
0.0018959
0.000728337
0.00025895
8.5549e-05
2.63578e-05
7.59847e-06
2.0557e-06
5.23344e-07
1.25685e-07
2.85317e-08
6.09504e-09
1.01046e-09
2.98218e-09
1.76068e-08
8.01468e-08
3.42637e-07
1.38232e-06
5.25116e-06
1.87331e-05
6.25708e-05
0.000195034
0.000565239
0.0015169
0.00375223
0.00851137
0.0176031
0.0329843
0.0556174
0.0838316
0.112375
0.133933
0.143548
0.142911
0.139338
0.138243
0.136312
0.124134
0.0960809
0.0557798
0.0126421
-0.0237613
-0.0477407
-0.06125
-0.0729103
-0.0895973
-0.109587
-0.125152
-0.131121
-0.129122
-0.123151
-0.115441
-0.107019
-0.0980977
-0.0883444
-0.0777459
-0.0667915
-0.0559625
-0.0460088
-0.037467
-0.0307613
-0.0261821
-0.0238541
-0.0238541
-0.026182
-0.0307613
-0.0374672
-0.0460093
-0.0559636
-0.0667932
-0.0777481
-0.0883471
-0.0981005
-0.107022
-0.115444
-0.123154
-0.129126
-0.131127
-0.125158
-0.10959
-0.0895976
-0.0729097
-0.0612512
-0.0477443
-0.0237651
0.0126407
0.0557821
0.0960865
0.124141
0.136316
0.138244
0.139338
0.142913
0.143551
0.133937
0.112378
0.0838316
0.0556157
0.032982
0.0176011
0.00850993
0.00375138
0.00151646
0.000565036
0.00019495
6.25389e-05
1.87219e-05
5.24759e-06
1.38125e-06
3.42339e-07
8.00689e-08
1.75878e-08
2.97869e-09
8.32381e-09
4.80925e-08
2.12785e-07
8.82322e-07
3.44645e-06
1.26518e-05
4.35198e-05
0.000139816
0.000417994
0.00115811
0.00295995
0.00694242
0.0148548
0.0288057
0.050255
0.0782864
0.108165
0.132169
0.143927
0.143853
0.139611
0.138243
0.136847
0.124101
0.0929853
0.0487892
0.00303184
-0.0352265
-0.0610763
-0.075414
-0.0866116
-0.102509
-0.12062
-0.131055
-0.127913
-0.115427
-0.100927
-0.0861711
-0.0704216
-0.0539524
-0.0369893
-0.0201889
-0.00495528
0.00785944
0.0179917
0.0252091
0.0301672
0.0331552
0.0348584
0.0355792
0.0355796
0.0348598
0.0331573
0.0301701
0.0252125
0.0179953
0.0078628
-0.00495254
-0.0201872
-0.0369887
-0.0539529
-0.0704229
-0.0861731
-0.100929
-0.115431
-0.12792
-0.131062
-0.120626
-0.10251
-0.086612
-0.075416
-0.0610802
-0.0352303
0.00302997
0.0487908
0.0929907
0.124108
0.136852
0.138244
0.139611
0.143855
0.143931
0.132173
0.108167
0.0782859
0.0502531
0.0288034
0.014853
0.00694118
0.00295925
0.00115776
0.000417841
0.000139754
4.34974e-05
1.26442e-05
3.44409e-06
8.81639e-07
2.126e-07
4.8046e-08
8.31505e-09
2.19968e-08
1.24346e-07
5.34497e-07
2.14837e-06
8.11946e-06
2.87805e-05
9.53733e-05
0.000294408
0.000843155
0.00223005
0.00541895
0.0120266
0.0242145
0.0438978
0.0710734
0.101958
0.128899
0.144055
0.145638
0.140581
0.137756
0.136312
0.124101
0.0918058
0.0451329
-0.00233484
-0.042488
-0.0720728
-0.0890516
-0.0984102
-0.109378
-0.121292
-0.123704
-0.110619
-0.0884156
-0.0682183
-0.0515861
-0.0343471
-0.0176385
-0.00369134
0.0067118
0.0124389
0.0131327
0.0104295
0.00520576
-0.00105336
-0.00705158
-0.01229
-0.0158921
-0.0178334
-0.0178333
-0.0158917
-0.0122891
-0.00705011
-0.00105109
0.00520905
0.0104339
0.0131379
0.0124446
0.00671734
-0.00368666
-0.017635
-0.0343452
-0.0515851
-0.0682175
-0.0884169
-0.110625
-0.123712
-0.121298
-0.109381
-0.0984125
-0.0890553
-0.0720771
-0.0424915
-0.00233674
0.0451342
0.0918111
0.124108
0.136316
0.137757
0.140581
0.14564
0.144059
0.128902
0.101959
0.0710724
0.0438957
0.0242123
0.0120249
0.00541793
0.0022295
0.000842895
0.000294298
9.53308e-05
2.87655e-05
8.11458e-06
2.14689e-06
5.34083e-07
1.24239e-07
2.1976e-08
5.50374e-08
3.04367e-07
1.27058e-06
4.94807e-06
1.80839e-05
6.18556e-05
0.000197326
0.000584773
0.0016027
0.0040417
0.009324
0.0195467
0.0369566
0.0624883
0.0936682
0.123552
0.143185
0.14794
0.142596
0.137296
0.134815
0.124134
0.0929853
0.0451329
-0.00401624
-0.0460645
-0.0799755
-0.100479
-0.10601
-0.107536
-0.11092
-0.107195
-0.0896248
-0.0646948
-0.0454219
-0.0346209
-0.023506
-0.0128111
-0.00889375
-0.0109356
-0.0174885
-0.0277839
-0.0389964
-0.0487164
-0.0573766
-0.0631443
-0.0674611
-0.0699016
-0.0713432
-0.0719419
-0.0719423
-0.0713442
-0.0699032
-0.0674632
-0.0631466
-0.0573789
-0.0487179
-0.0389969
-0.0277828
-0.0174855
-0.0109313
-0.00888866
-0.0128063
-0.0235029
-0.0346181
-0.0454182
-0.064693
-0.0896273
-0.1072
-0.110924
-0.107539
-0.106014
-0.100485
-0.0799804
-0.0460677
-0.00401808
0.0451342
0.0929907
0.124141
0.134818
0.137297
0.142597
0.147944
0.14319
0.123554
0.0936686
0.0624869
0.0369544
0.0195448
0.00932262
0.00404089
0.00160228
0.000584588
0.00019725
6.18276e-05
1.80743e-05
4.94508e-06
1.26971e-06
3.04132e-07
5.49909e-08
1.30419e-07
7.05579e-07
2.85987e-06
1.07873e-05
3.81102e-05
0.000125735
0.000385933
0.00109731
0.00287593
0.00690888
0.0151151
0.0298924
0.0529909
0.0834351
0.115652
0.140362
0.150046
0.145891
0.137773
0.132795
0.123745
0.0960809
0.0487892
-0.00233484
-0.0460645
-0.0829271
-0.107039
-0.109129
-0.0999047
-0.0959707
-0.0921737
-0.0777787
-0.0567255
-0.0407821
-0.0357133
-0.0313212
-0.0239071
-0.025466
-0.0341196
-0.0424795
-0.0500129
-0.0554321
-0.055987
-0.0543218
-0.051149
-0.0462721
-0.0427621
-0.0387333
-0.0366574
-0.0351974
-0.0351975
-0.0366577
-0.0387339
-0.0427632
-0.0462737
-0.0511515
-0.0543249
-0.0559906
-0.055436
-0.0500158
-0.042481
-0.0341193
-0.025463
-0.0239037
-0.0313196
-0.035711
-0.0407782
-0.0567232
-0.0777798
-0.0921762
-0.0959719
-0.0999062
-0.109134
-0.107047
-0.0829323
-0.0460677
-0.00233674
0.0487908
0.0960865
0.123751
0.132798
0.137774
0.145892
0.15005
0.140366
0.115654
0.0834347
0.052989
0.0298903
0.0151134
0.00690778
0.00287532
0.00109702
0.000385806
0.000125686
3.80927e-05
1.07816e-05
2.85813e-06
7.05095e-07
1.30321e-07
2.92861e-07
1.55018e-06
6.10039e-06
2.22844e-05
7.60901e-05
0.000242091
0.000714777
0.00194922
0.00488325
0.0111693
0.023158
0.0431691
0.071686
0.105021
0.134623
0.150785
0.15019
0.140166
0.131241
0.122497
0.0998669
0.0557798
0.00303184
-0.042488
-0.0799755
-0.107039
-0.109746
-0.0933657
-0.0842905
-0.0850497
-0.0775514
-0.0606657
-0.0447535
-0.038106
-0.0366734
-0.0297799
-0.0297902
-0.0400332
-0.0439326
-0.0424666
-0.0395023
-0.0334699
-0.0252737
-0.0205996
-0.0143692
-0.0112815
-0.00861007
-0.00680568
-0.00610765
-0.00551355
-0.00551333
-0.00610731
-0.00680492
-0.00860928
-0.0112805
-0.0143684
-0.0205994
-0.0252738
-0.0334714
-0.0395048
-0.0424694
-0.0439361
-0.0400352
-0.0297884
-0.029778
-0.036673
-0.0381041
-0.0447509
-0.0606652
-0.0775531
-0.0850508
-0.0842889
-0.0933658
-0.109752
-0.107047
-0.0799804
-0.0424915
0.00302997
0.0557821
0.0998724
0.122501
0.131242
0.140168
0.150193
0.150789
0.134627
0.105022
0.0716848
0.0431671
0.0231561
0.0111679
0.0048824
0.00194878
0.000714578
0.00024201
7.60597e-05
2.2274e-05
6.09712e-06
1.54924e-06
2.92665e-07
6.23739e-07
3.23113e-06
1.23471e-05
4.36836e-05
0.000144169
0.000442361
0.00125636
0.00328598
0.00786837
0.0171326
0.0336565
0.0591175
0.0919263
0.125295
0.148696
0.154417
0.144978
0.131642
0.12068
0.102782
0.0649765
0.0126421
-0.0352265
-0.0720728
-0.100479
-0.109129
-0.0933657
-0.0800833