/*--------------------------------*- C++ -*----------------------------------*\
  =========                 |
  \\      /  F ield         | OpenFOAM: The Open Source CFD Toolbox
   \\    /   O peration     | Website:  https://openfoam.org
    \\  /    A nd           | Version:  10
     \\/     M anipulation  |
\*---------------------------------------------------------------------------*/
FoamFile
{
    format      ascii;
    class       volScalarField;
    location    "11";
    object      h_0;
}
// * * * * * * * * * * * * * * * * * * * * * * * * * * * * * * * * * * * * * //

dimensions      [0 1 0 0 0 0 0];

internalField   nonuniform List<scalar> 
10000
(
1.21775e-23
1.03052e-22
7.3358e-22
5.01643e-21
3.29963e-20
2.08598e-19
1.26633e-18
7.37548e-18
4.11754e-17
2.20131e-16
1.12591e-15
5.50393e-15
2.56899e-14
1.14376e-13
4.85236e-13
1.9597e-12
7.52702e-12
2.74693e-11
9.51657e-11
3.12734e-10
9.74153e-10
2.87468e-09
8.03316e-09
2.12533e-08
5.32377e-08
1.26296e-07
2.83911e-07
6.05314e-07
1.22546e-06
2.3593e-06
4.32702e-06
7.5748e-06
1.2684e-05
2.03616e-05
3.14069e-05
4.66516e-05
6.6877e-05
9.27124e-05
0.000124528
0.000162331
0.000205684
0.000253655
0.000304807
0.000357252
0.000408742
0.00045682
0.000499004
0.000532981
0.00055681
0.00056909
0.000569087
0.000556802
0.000532967
0.000498986
0.000456799
0.000408718
0.000357227
0.000304782
0.00025363
0.000205661
0.00016231
0.000124509
9.26966e-05
6.6864e-05
4.66413e-05
3.1399e-05
2.03558e-05
1.26799e-05
7.57203e-06
4.32523e-06
2.3582e-06
1.22482e-06
6.04953e-07
2.8372e-07
1.262e-07
5.31926e-08
2.12332e-08
8.02469e-09
2.87131e-09
9.72889e-10
3.12286e-10
9.50157e-11
2.74218e-11
7.51278e-12
1.95566e-12
4.84146e-13
1.14097e-13
2.56221e-14
5.48826e-15
1.12245e-15
2.19406e-16
4.10299e-17
7.34756e-18
1.26121e-18
2.07698e-19
3.28449e-20
4.99196e-21
7.29783e-22
1.02487e-22
1.21071e-23
1.03052e-22
8.62091e-22
6.05381e-21
4.08212e-20
2.64681e-19
1.64887e-18
9.86023e-18
5.65503e-17
3.10757e-16
1.63467e-15
8.22319e-15
3.95199e-14
1.81268e-13
7.92712e-13
3.30188e-12
1.30866e-11
4.93046e-11
1.76418e-10
5.98983e-10
1.92826e-09
5.88171e-09
1.69903e-08
4.64634e-08
1.20274e-07
2.94736e-07
6.8402e-07
1.50446e-06
3.13915e-06
6.22213e-06
1.17347e-05
2.10973e-05
3.6234e-05
5.9582e-05
9.40218e-05
0.000142714
0.000208843
0.000295276
0.000404179
0.000536618
0.000692193
0.000868769
0.00106233
0.00126702
0.00147532
0.00167852
0.00186721
0.00203202
0.0021643
0.00225683
0.00230445
0.00230444
0.0022568
0.00216425
0.00203196
0.00186714
0.00167843
0.00147523
0.00126692
0.00106224
0.000868682
0.000692113
0.000536546
0.000404118
0.000295225
0.000208802
0.000142682
9.39979e-05
5.95649e-05
3.62222e-05
2.10894e-05
1.17297e-05
6.21915e-06
3.13745e-06
1.50354e-06
6.83549e-07
2.94508e-07
1.2017e-07
4.64184e-08
1.6972e-08
5.87466e-09
1.9257e-09
5.98106e-10
1.76134e-10
4.92176e-11
1.30613e-11
3.29495e-12
7.90902e-13
1.80819e-13
3.94142e-14
8.19946e-15
1.6296e-15
3.09721e-16
5.63482e-17
9.82256e-18
1.64214e-18
2.63531e-19
4.06326e-20
6.02409e-21
8.57604e-22
1.02486e-22
7.3358e-22
6.05381e-21
4.18281e-20
2.77368e-19
1.76778e-18
1.08199e-17
6.35393e-17
3.57672e-16
1.92811e-15
9.94394e-15
4.90149e-14
2.30674e-13
1.03543e-12
4.4284e-12
1.80272e-11
6.97786e-11
2.56568e-10
8.9529e-10
2.9623e-09
9.28679e-09
2.75673e-08
7.74474e-08
2.05865e-07
5.17726e-07
1.23214e-06
2.77652e-06
5.92916e-06
1.20134e-05
2.31305e-05
4.23986e-05
7.41439e-05
0.000123979
0.000198711
0.000306025
0.000453952
0.00065013
0.000900921
0.00121047
0.00157982
0.00200616
0.00248234
0.00299674
0.00353354
0.00407341
0.00459459
0.00507428
0.00549016
0.00582201
0.00605318
0.00617184
0.00617182
0.00605312
0.00582191
0.00549002
0.00507411
0.0045944
0.0040732
0.00353333
0.00299653
0.00248214
0.00200597
0.00157965
0.00121032
0.00090079
0.000650023
0.000453866
0.000305959
0.000198662
0.000123945
7.41201e-05
4.23831e-05
2.31209e-05
1.20077e-05
5.92597e-06
2.77482e-06
1.23129e-06
5.17324e-07
2.05685e-07
7.7372e-08
2.75374e-08
9.27559e-09
2.95835e-09
8.93971e-10
2.56153e-10
6.96547e-11
1.79922e-11
4.41904e-12
1.03305e-12
2.301e-13
4.88832e-14
9.91513e-15
1.9221e-15
3.56475e-16
6.33117e-17
1.07784e-17
1.76056e-18
2.76161e-19
4.16346e-20
6.02409e-21
7.29781e-22
5.01643e-21
4.08212e-20
2.77368e-19
1.8077e-18
1.1318e-17
6.80162e-17
3.91968e-16
2.16404e-15
1.14349e-14
5.77705e-14
2.78768e-13
1.28347e-12
5.63212e-12
2.3531e-11
9.35037e-11
3.5301e-10
1.26496e-09
4.29823e-09
1.38371e-08
4.21706e-08
1.21596e-07
3.31575e-07
8.54879e-07
2.08406e-06
4.80567e-06
1.04891e-05
2.16928e-05
4.25703e-05
7.94104e-05
0.000141101
0.00023937
0.000388675
0.000605621
0.000907913
0.00131286
0.00183558
0.00248705
0.00327224
0.00418849
0.00522442
0.00635939
0.0075639
0.00880063
0.0100264
0.0111944
0.0122574
0.0131704
0.0138935
0.0143946
0.014651
0.0146509
0.0143945
0.0138934
0.0131701
0.0122571
0.011194
0.010026
0.00880022
0.00756348
0.00635898
0.00522402
0.00418812
0.0032719
0.00248675
0.00183533
0.00131266
0.00090775
0.000605496
0.000388583
0.000239305
0.000141057
7.9382e-05
4.25528e-05
2.16826e-05
1.04834e-05
4.80275e-06
2.08263e-06
8.54216e-07
3.31285e-07
1.21477e-07
4.21246e-08
1.38203e-08
4.29246e-09
1.26309e-09
3.52435e-10
9.33368e-11
2.34851e-11
5.62016e-12
1.28051e-12
2.78072e-13
5.76147e-14
1.14016e-14
2.15728e-15
3.90654e-16
6.77722e-17
1.12746e-17
1.80031e-18
2.76161e-19
4.06325e-20
4.99195e-21
3.29963e-20
2.64681e-19
1.76778e-18
1.1318e-17
6.95758e-17
4.10308e-16
2.31905e-15
1.25495e-14
6.49558e-14
3.2124e-13
1.51635e-12
6.82424e-12
2.92495e-11
1.19265e-10
4.62131e-10
1.69984e-09
5.92914e-09
1.95929e-08
6.12835e-08
1.81301e-07
5.07001e-07
1.33967e-06
3.3443e-06
7.88857e-06
1.7591e-05
3.71156e-05
7.419e-05
0.000140725
0.000253812
0.00043629
0.000716595
0.00112768
0.00170498
0.00248347
0.00349424
0.00476077
0.00629539
0.00809627
0.0101454
0.0124075
0.014831
0.0173496
0.0198859
0.0223555
0.0246719
0.026751
0.0285161
0.0299013
0.0308547
0.0313404
0.0313404
0.0308545
0.029901
0.0285157
0.0267505
0.0246713
0.0223549
0.0198852
0.0173489
0.0148303
0.0124068
0.0101447
0.00809564
0.00629482
0.00476027
0.00349381
0.00248311
0.00170469
0.00112746
0.000716433
0.000436176
0.000253735
0.000140676
7.41602e-05
3.70985e-05
1.75817e-05
7.88381e-06
3.34201e-06
1.33863e-06
5.06558e-07
1.81123e-07
6.12165e-08
1.9569e-08
5.92115e-09
1.69731e-09
4.61375e-10
1.19051e-10
2.91923e-11
6.8097e-12
1.51284e-12
3.20436e-13
6.47802e-14
1.2513e-14
2.31179e-15
4.08932e-16
6.93261e-17
1.12746e-17
1.76056e-18
2.63531e-19
3.28448e-20
2.08598e-19
1.64887e-18
1.08199e-17
6.80162e-17
4.10308e-16
2.37313e-15
1.31466e-14
6.9686e-14
3.53066e-13
1.70795e-12
7.87993e-12
3.46345e-11
1.44857e-10
5.75862e-10
2.17347e-09
7.77969e-09
2.63805e-08
8.46607e-08
2.56904e-07
7.36585e-07
1.99428e-06
5.09692e-06
1.22959e-05
2.80065e-05
6.02674e-05
0.000122656
0.000236443
0.000432535
0.000752599
0.00124877
0.00198152
0.00301569
0.00441496
0.00623544
0.008519
0.0112872
0.0145365
0.018235
0.0223217
0.0267081
0.0312828
0.0359171
0.0404733
0.0448123
0.0488008
0.0523178
0.055259
0.0575394
0.0590952
0.0598837
0.0598836
0.0590951
0.0575392
0.0552586
0.0523173
0.0488001
0.0448115
0.0404725
0.0359162
0.0312818
0.0267071
0.0223206
0.018234
0.0145356
0.0112863
0.0085182
0.00623474
0.00441438
0.00301522
0.00198116
0.0012485
0.000752411
0.000432409
0.000236363
0.000122608
6.024e-05
2.79919e-05
1.22886e-05
5.09344e-06
1.99273e-06
7.35942e-07
2.56652e-07
8.45678e-08
2.63483e-08
7.76917e-09
2.17022e-09
5.74917e-10
1.44597e-10
3.45665e-11
7.86309e-12
1.70399e-12
3.5218e-13
6.94974e-14
1.31083e-14
2.3657e-15
4.08932e-16
6.77722e-17
1.07784e-17
1.64214e-18
2.07698e-19
1.26633e-18
9.86023e-18
6.35393e-17
3.91968e-16
2.31905e-15
1.31466e-14
7.13376e-14
3.70134e-13
1.83426e-12
8.67231e-12
3.90734e-11
1.67567e-10
6.83192e-10
2.645e-09
9.71231e-09
3.37858e-08
1.11219e-07
3.46104e-07
1.01724e-06
2.82159e-06
7.38209e-06
1.82114e-05
4.2364e-05
9.29617e-05
0.000192583
0.000377131
0.000699327
0.00123065
0.00206049
0.00329188
0.00503374
0.00739057
0.010451
0.0142766
0.0188925
0.0242803
0.030375
0.0370655
0.0442
0.0515954
0.0590495
0.0663548
0.0733121
0.0797416
0.08549
0.0904342
0.0944811
0.0975648
0.0996417
0.100686
0.100686
0.0996416
0.0975647
0.094481
0.0904339
0.0854896
0.0797411
0.0733115
0.0663539
0.0590485
0.0515943
0.0441988
0.0370641
0.0303736
0.024279
0.0188913
0.0142755
0.01045
0.00738969
0.00503303
0.00329133
0.00206008
0.00123035
0.000699131
0.000377007
0.000192509
9.29201e-05
4.2342e-05
1.82006e-05
7.37707e-06
2.81941e-06
1.01635e-06
3.45764e-07
1.11096e-07
3.37444e-08
9.69914e-09
2.64104e-09
6.82068e-10
1.67265e-10
3.89965e-11
8.65376e-12
1.83e-12
3.69205e-13
7.11444e-14
1.31083e-14
2.31179e-15
3.90654e-16
6.33117e-17
9.82256e-18
1.26121e-18
7.37548e-18
5.65503e-17
3.57672e-16
2.16404e-15
1.25495e-14
6.9686e-14
3.70134e-13
1.87839e-12
9.0977e-12
4.20034e-11
1.84638e-10
7.71807e-10
3.06412e-09
1.15391e-08
4.11683e-08
1.38981e-07
4.43454e-07
1.3359e-06
3.79592e-06
1.01658e-05
2.56456e-05
6.09277e-05
0.00013633
0.000287456
0.000571723
0.00107422
0.00191059
0.00322478
0.00518022
0.00794505
0.0116733
0.0164855
0.0224509
0.0295742
0.0377885
0.0469539
0.0568633
0.067256
0.0778371
0.0883012
0.0983573
0.107751
0.116279
0.123798
0.130224
0.135525
0.139704
0.14279
0.144819
0.145825
0.145825
0.14482
0.14279
0.139704
0.135525
0.130225
0.123798
0.116279
0.107751
0.0983569
0.0883005
0.0778362
0.0672548
0.0568619
0.0469524
0.0377869
0.0295726
0.0224493
0.0164841
0.0116721
0.00794403
0.00517942
0.00322418
0.00191016
0.00107393
0.00057154
0.000287347
0.00013627
6.08965e-05
2.56304e-05
1.01589e-05
3.79299e-06
1.33473e-06
4.43018e-07
1.38828e-07
4.11178e-08
1.15234e-08
3.05953e-09
7.70535e-10
1.84305e-10
4.19207e-11
9.07822e-12
1.87403e-12
3.69205e-13
6.94974e-14
1.2513e-14
2.15728e-15
3.56475e-16
5.63482e-17
7.34755e-18
4.11754e-17
3.10757e-16
1.92811e-15
1.14349e-14
6.49558e-14
3.53066e-13
1.83426e-12
9.0977e-12
4.30278e-11
1.93811e-10
8.30363e-10
3.37955e-09
1.30491e-08
4.77373e-08
1.65243e-07
5.4053e-07
1.66884e-06
4.85755e-06
1.33166e-05
3.43557e-05
8.33671e-05
0.000190234
0.000408282
0.000824718
0.00156981
0.00282071
0.00479575
0.00773712
0.0118833
0.0174362
0.0245293
0.0332027
0.043388
0.0549047
0.0674664
0.0806995
0.0941704
0.107423
0.120021
0.131589
0.141843
0.150613
0.157845
0.163589
0.167976
0.17119
0.173437
0.174917
0.175799
0.176209
0.176209
0.1758
0.174917
0.173438
0.171191
0.167978
0.163591
0.157847
0.150614
0.141844
0.13159
0.120022
0.107423
0.0941699
0.0806985
0.0674651
0.0549031
0.0433863
0.0332009
0.0245275
0.0174346
0.011882
0.00773603
0.00479492
0.00282011
0.0015694
0.000824463
0.000408132
0.000190151
8.33248e-05
3.43355e-05
1.33076e-05
4.8538e-06
1.66738e-06
5.39998e-07
1.65061e-07
4.76787e-08
1.30313e-08
3.37447e-09
8.28993e-10
1.93461e-10
4.2943e-11
9.07822e-12
1.83e-12
3.5218e-13
6.47802e-14
1.14016e-14
1.9221e-15
3.09721e-16
4.10298e-17
2.20131e-16
1.63467e-15
9.94394e-15
5.77705e-14
3.2124e-13
1.70795e-12
8.67231e-12
4.20034e-11
1.93811e-10
8.50846e-10
3.54915e-09
1.40477e-08
5.26847e-08
1.86964e-07
6.26924e-07
1.98364e-06
5.91469e-06
1.65997e-05
4.38032e-05
0.000108589
0.000252756
0.000552297
0.00113325
0.00218538
0.00396643
0.00678974
0.0109916
0.0168822
0.0246906
0.0345163
0.046299
0.059808
0.0746521
0.0903048
0.106143
0.121501
0.135726
0.148252
0.158657
0.166704
0.172356
0.175766
0.177239
0.177182
0.176052
0.174306
0.172365
0.170586
0.169243
0.168525
0.168525
0.169244
0.170587
0.172367
0.174308
0.176055
0.177185
0.177242
0.175769
0.172359
0.166707
0.15866
0.148254
0.135727
0.121501
0.106143
0.0903042
0.0746509
0.0598065
0.0462972
0.0345144
0.0246887
0.0168806
0.0109902
0.00678864
0.00396563
0.00218484
0.00113291
0.000552098
0.000252647
0.000108535
4.37776e-05
1.65885e-05
5.91014e-06
1.98191e-06
6.26306e-07
1.86758e-07
5.262e-08
1.40285e-08
3.54382e-09
8.49441e-10
1.93461e-10
4.19207e-11
8.65376e-12
1.70399e-12
3.20436e-13
5.76147e-14
9.91513e-15
1.6296e-15
2.19405e-16
1.12591e-15
8.22319e-15
4.90149e-14
2.78768e-13
1.51635e-12
7.87993e-12
3.90734e-11
1.84638e-10
8.30363e-10
3.54915e-09
1.43971e-08
5.53461e-08
2.01333e-07
6.91998e-07
2.2439e-06
6.85445e-06
1.96968e-05
5.31746e-05
0.000134711
0.000319967
0.000712126
0.0014849
0.00290196
0.0053209
0.00916907
0.0148858
0.0228394
0.0332391
0.0460695
0.061061
0.0777016
0.0952785
0.112938
0.129755
0.144815
0.157303
0.166597
0.172344
0.174501
0.17333
0.169346
0.163232
0.155743
0.147627
0.139555
0.132089
0.125667
0.120608
0.117127
0.115356
0.115356
0.117127
0.120608
0.125668
0.132091
0.139557
0.147629
0.155746
0.163235
0.16935
0.173334
0.174505
0.172348
0.166601
0.157306
0.144817
0.129756
0.112938
0.0952782
0.0777005
0.0610594
0.0460676
0.0332371
0.0228374
0.0148841
0.0091677
0.00531989
0.00290127
0.00148446
0.000711874
0.000319832
0.000134644
5.31437e-05
1.96835e-05
6.84918e-06
2.24195e-06
6.91317e-07
2.01111e-07
5.52781e-08
1.43775e-08
3.54382e-09
8.28993e-10
1.84305e-10
3.89965e-11
7.86309e-12
1.51284e-12
2.78072e-13
4.88832e-14
8.19946e-15
1.12245e-15
5.50393e-15
3.95199e-14
2.30674e-13
1.28347e-12
6.82424e-12
3.46345e-11
1.67567e-10
7.71807e-10
3.37955e-09
1.40477e-08
5.53461e-08
2.06362e-07
7.27006e-07
2.41604e-06
7.56171e-06
2.22529e-05
6.14796e-05
0.000159232
0.000386132
0.000875832
0.00185702
0.00368017
0.00682011
0.0118337
0.0192637
0.0295053
0.0426742
0.0585247
0.076443
0.0955104
0.114607
0.132523
0.148067
0.160166
0.167981
0.171012
0.169185
0.162876
0.152855
0.140155
0.125916
0.111228
0.0970173
0.0839827
0.0725856
0.0630769
0.0555481
0.0499883
0.046338
0.0445326
0.0445325
0.0463376
0.0499877
0.0555474
0.0630762
0.0725851
0.0839827
0.0970178
0.111229
0.125918
0.140158
0.152859
0.162881
0.16919
0.171017
0.167986
0.16017
0.14807
0.132525
0.114608
0.0955102
0.0764419
0.0585231
0.0426722
0.0295032
0.0192618
0.011832
0.00681888
0.00367933
0.00185649
0.000875527
0.000385971
0.000159153
6.1444e-05
2.2238e-05
7.5559e-06
2.41393e-06
7.2629e-07
2.06135e-07
5.52781e-08
1.40285e-08
3.37447e-09
7.70535e-10
1.67265e-10
3.45665e-11
6.8097e-12
1.28051e-12
2.301e-13
3.94141e-14
5.48824e-15
2.56899e-14
1.81268e-13
1.03543e-12
5.63212e-12
2.92495e-11
1.44857e-10
6.83192e-10
3.06412e-09
1.30491e-08
5.26847e-08
2.01333e-07
7.27006e-07
2.47628e-06
7.94201e-06
2.39415e-05
6.77159e-05
0.000179391
0.000444411
0.00102808
0.00221844
0.00446214
0.00836493
0.0146242
0.0238791
0.0365059
0.0524306
0.071041
0.091239
0.111606
0.130606
0.146762
0.158785
0.165665
0.166778
0.161997
0.151773
0.13712
0.119478
0.100473
0.0816503
0.0642636
0.0491524
0.0367263
0.0270245
0.0198197
0.0147298
0.0113179
0.00916837
0.0079375
0.00738385
0.00738357
0.00793668
0.00916702
0.0113161
0.0147275
0.0198171
0.0270217
0.0367235
0.0491501
0.064262
0.0816497
0.100473
0.11948
0.137123
0.151777
0.162002
0.166783
0.16567
0.158789
0.146766
0.130608
0.111607
0.0912389
0.0710398
0.0524288
0.0365038
0.023877
0.0146224
0.00836351
0.00446115
0.00221783
0.00102773
0.000444227
0.000179303
6.76768e-05
2.39255e-05
7.93591e-06
2.47412e-06
7.2629e-07
2.01111e-07
5.262e-08
1.30313e-08
3.05953e-09
6.82068e-10
1.44597e-10
2.91923e-11
5.62016e-12
1.03305e-12
1.80819e-13
2.5622e-14
1.14376e-13
7.92712e-13
4.4284e-12
2.3531e-11
1.19265e-10
5.75862e-10
2.645e-09
1.15391e-08
4.77373e-08
1.86964e-07
6.91998e-07
2.41604e-06
7.94201e-06
2.45321e-05
7.10646e-05
0.000192674
0.000487979
0.00115237
0.00253334
0.00517776
0.00983086
0.0173376
0.0284228
0.0433927
0.0618794
0.0827656
0.104353
0.124698
0.14196
0.154632
0.161626
0.1623
0.156497
0.14465
0.127862
0.107859
0.0867413
0.0665952
0.0491099
0.0353317
0.0256097
0.0197018
0.01697
0.0165911
0.0177292
0.0196487
0.0217674
0.0236648
0.0250632
0.0257995
0.0257994
0.0250629
0.0236643
0.0217665
0.0196473
0.0177272
0.0165884
0.0169667
0.019698
0.0256056
0.0353277
0.0491066
0.0665931
0.0867406
0.10786
0.127865
0.144654
0.156502
0.162305
0.161631
0.154636
0.141963
0.1247
0.104353
0.0827651
0.0618779
0.0433906
0.0284205
0.0173356
0.00982926
0.00517665
0.00253265
0.00115198
0.000487778
0.00019258
7.10236e-05
2.45157e-05
7.93591e-06
2.41393e-06
6.91317e-07
1.86758e-07
4.76787e-08
1.15234e-08
2.64104e-09
5.74917e-10
1.19051e-10
2.34851e-11
4.41904e-12
7.90902e-13
1.14097e-13
4.85236e-13
3.30188e-12
1.80272e-11
9.35037e-11
4.62131e-10
2.17347e-09
9.71231e-09
4.11683e-08
1.65243e-07
6.26924e-07
2.2439e-06
7.56171e-06
2.39415e-05
7.10646e-05
0.000197314
0.00051131
0.00123387
0.00276686
0.00575463
0.0110839
0.0197518
0.0325613
0.0497068
0.0704336
0.093
0.115035
0.134136
0.148397
0.156638
0.158342
0.153484
0.142469
0.126232
0.106389
0.0851879
0.065151
0.0484922
0.0366065
0.0298543
0.0276811
0.0289508
0.0323314
0.0366075
0.0408627
0.0445341
0.047376
0.0493748
0.050652
0.0513761
0.0516958
0.051696
0.0513768
0.0506531
0.0493762
0.0473775
0.0445354
0.0408636
0.0366077
0.0323306
0.028949
0.0276782
0.0298506
0.0366025
0.0484886
0.0651484
0.0851868
0.106389
0.126234
0.142472
0.153488
0.158347
0.156643
0.148401
0.134139
0.115037
0.0930003
0.0704325
0.0497048
0.032559
0.0197496
0.0110822
0.00575342
0.00276611
0.00123345
0.0005111
0.000197217
7.10236e-05
2.39255e-05
7.5559e-06
2.24195e-06
6.26306e-07
1.65061e-07
4.11178e-08
9.69914e-09
2.17022e-09
4.61375e-10
9.33368e-11
1.79922e-11
3.29494e-12
4.84145e-13
1.9597e-12
1.30866e-11
6.97786e-11
3.5301e-10
1.69984e-09
7.77969e-09
3.37858e-08
1.38981e-07
5.4053e-07
1.98364e-06
6.85445e-06
2.22529e-05
6.77159e-05
0.000192674
0.00051131
0.00126226
0.0028913
0.00612962
0.0120001
0.0216547
0.0359791
0.0550381
0.0776312
0.10131
0.123006
0.139995
0.150636
0.154488
0.151901
0.143519
0.130081
0.112626
0.0928462
0.0731468
0.0561647
0.0439258
0.0371645
0.0352119
0.036436
0.0389059
0.040965
0.0415565
0.0402858
0.037301
0.0330985
0.0283293
0.0236502
0.0196317
0.0167111
0.0151792
0.0151795
0.016712
0.019633
0.0236522
0.0283319
0.0331016
0.0373046
0.0402896
0.0415601
0.0409678
0.0389076
0.0364363
0.0352106
0.037162
0.0439227
0.0561619
0.073145
0.0928458
0.112627
0.130083
0.143522
0.151905
0.154492
0.15064
0.139998
0.123008
0.101311
0.0776307
0.0550363
0.0359767
0.0216524
0.0119983
0.00612835
0.00289052
0.00126184
0.0005111
0.00019258
6.76768e-05
2.2238e-05
6.84918e-06
1.98191e-06
5.39998e-07
1.38828e-07
3.37444e-08
7.76917e-09
1.69731e-09
3.52435e-10
6.96547e-11
1.30613e-11
1.95565e-12
7.52702e-12
4.93046e-11
2.56568e-10
1.26496e-09
5.92914e-09
2.63805e-08
1.11219e-07
4.43454e-07
1.66884e-06
5.91469e-06
1.96968e-05
6.14796e-05
0.000179391
0.000487979
0.00123387
0.0028913
0.0062597
0.0124841
0.0228726
0.0384133
0.0590637
0.083172
0.107547
0.128429
0.142929
0.150013
0.150345
0.14527
0.135837
0.122551
0.105894
0.087115
0.0685266
0.0528586
0.0419864
0.0359689
0.0331087
0.0309012
0.027129
0.0205254
0.0109079
-0.00107023
-0.0143249
-0.027707
-0.0402387
-0.0512175
-0.0602145
-0.0670171
-0.0715522
-0.0738143
-0.0738144
-0.0715524
-0.0670174
-0.0602147
-0.0512175
-0.0402381
-0.0277057
-0.0143226
-0.00106701
0.0109119
0.0205297
0.027133
0.0309042
0.0331101
0.0359687
0.0419851
0.0528571
0.0685256
0.087115
0.105895
0.122552
0.135839
0.145272
0.150348
0.150017
0.142933
0.128432
0.107549
0.083172
0.0590621
0.038411
0.0228703
0.0124822
0.00625841
0.00289052
0.00123345
0.000487778
0.000179303
6.1444e-05
1.96835e-05
5.91014e-06
1.66738e-06
4.43018e-07
1.11096e-07
2.63483e-08
5.92115e-09
1.26309e-09
2.56153e-10
4.92176e-11
7.51276e-12
2.74693e-11
1.76418e-10
8.9529e-10
4.29823e-09
1.95929e-08
8.46607e-08
3.46104e-07
1.3359e-06
4.85755e-06
1.65997e-05
5.31746e-05
0.000159232
0.000444411
0.00115237
0.00276686
0.00612962
0.0124841
0.0232917
0.0396782
0.0615622
0.0869038
0.111788
0.131765
0.143888
0.147983
0.146069
0.140416
0.131944
0.120145
0.104301
0.0849614
0.0645411
0.0463652
0.0326775
0.0231851
0.0153627
0.00617906
-0.00623872
-0.0220522
-0.0400978
-0.0586231
-0.0759761
-0.0910137
-0.103196
-0.112492
-0.119208
-0.123805
-0.126763
-0.128491
-0.12928
-0.129281
-0.128492
-0.126764
-0.123807
-0.119211
-0.112494
-0.103198
-0.091016
-0.0759776
-0.0586234
-0.0400967
-0.0220497
-0.00623535
0.00618243
0.0153651
0.0231861
0.0326774
0.0463648
0.0645414
0.0849628
0.104302
0.120146
0.131946
0.140417
0.146071
0.147987
0.143892
0.131769
0.11179
0.0869041
0.0615608
0.0396759
0.0232894
0.0124822
0.00612835
0.00276611
0.00115198
0.000444227
0.000159153
5.31437e-05
1.65885e-05
4.8538e-06
1.33473e-06
3.45764e-07
8.45678e-08
1.9569e-08
4.29246e-09
8.93971e-10
1.76134e-10
2.74217e-11
9.51657e-11
5.98983e-10
2.9623e-09
1.38371e-08
6.12835e-08
2.56904e-07
1.01724e-06
3.79592e-06
1.33166e-05
4.38032e-05
0.000134711
0.000386132
0.00102808
0.00253334
0.00575463
0.0120001
0.0228726
0.0396782
0.0624084
0.0887739
0.114216
0.133578
0.143822
0.14572
0.142758
0.137952
0.131461
0.121024
0.104396
0.0816899
0.0561082
0.0324313
0.0139595
0.000303557
-0.011952
-0.0263495
-0.0440858
-0.0638413
-0.0831753
-0.0998419
-0.112515
-0.120946
-0.12567
-0.127597
-0.127702
-0.126819
-0.125567
-0.124362
-0.123451
-0.122968
-0.122968
-0.123451
-0.124363
-0.125568
-0.126821
-0.127705
-0.1276
-0.125674
-0.12095
-0.112519
-0.0998453
-0.0831774
-0.0638418
-0.0440846
-0.0263475
-0.0119503
0.000304109
0.013959
0.032431
0.0561092
0.0816925
0.104399
0.121027
0.131463
0.137952
0.142759
0.145722
0.143825
0.133582
0.114218
0.0887743
0.062407
0.0396759
0.0228703
0.0119983
0.00575342
0.00253265
0.00102773
0.000385971
0.000134644
4.37776e-05
1.33076e-05
3.79299e-06
1.01635e-06
2.56652e-07
6.12165e-08
1.38203e-08
2.95835e-09
5.98106e-10
9.50155e-11
3.12734e-10
1.92826e-09
9.28679e-09
4.21706e-08
1.81301e-07
7.36585e-07
2.82159e-06
1.01658e-05
3.43557e-05
0.000108589
0.000319967
0.000875832
0.00221844
0.00517776
0.0110839
0.0216547
0.0384133
0.0615622
0.0887739
0.115003
0.134349
0.143478
0.14395
0.14071
0.137406
0.132969
0.122875
0.103449
0.0751092
0.042698
0.0130823
-0.00907043
-0.024433
-0.0378703
-0.0538682
-0.0729288
-0.0920657
-0.107904
-0.118648
-0.124203
-0.125682
-0.124653
-0.122474
-0.120069
-0.117957
-0.1163
-0.115113
-0.114318
-0.113839
-0.113614
-0.113614
-0.113839
-0.114319
-0.115113
-0.1163
-0.117957
-0.12007
-0.122475
-0.124655
-0.125685
-0.124207
-0.118652
-0.107908
-0.0920681
-0.0729294
-0.0538673
-0.0378694
-0.0244336
-0.00907224
0.0130809
0.0426987
0.0751125
0.103454
0.12288
0.132971
0.137406
0.14071
0.143951
0.143481
0.134353
0.115005
0.0887743
0.0615608
0.038411
0.0216524
0.0110822
0.00517665
0.00221783
0.000875527
0.000319832
0.000108535
3.43355e-05
1.01589e-05
2.81941e-06
7.35942e-07
1.81123e-07
4.21246e-08
9.27559e-09
1.9257e-09
3.12285e-10
9.74153e-10
5.88171e-09
2.75673e-08
1.21596e-07
5.07001e-07
1.99428e-06
7.38209e-06
2.56456e-05
8.33671e-05
0.000252756
0.000712126
0.00185702
0.00446214
0.00983086
0.0197518
0.0359791
0.0590637
0.0869038
0.114216
0.134349
0.143313
0.143011
0.139711
0.137816
0.134974
0.124198
0.10069
0.0660672
0.0273682
-0.00663353
-0.0302626
-0.0448594
-0.0573092
-0.0734244
-0.0928725
-0.110572
-0.122275
-0.127465
-0.127801
-0.125399
-0.122064
-0.118748
-0.115657
-0.112758
-0.109943
-0.107178
-0.10461
-0.102399
-0.100787
-0.0999272
-0.0999274
-0.100787
-0.1024
-0.104611
-0.107179
-0.109945
-0.11276
-0.115658
-0.11875
-0.122066
-0.125402
-0.127805
-0.127469
-0.12228
-0.110576
-0.0928741
-0.073424
-0.0573085
-0.0448606
-0.0302657
-0.00663642
0.0273679
0.0660703
0.100696
0.124204
0.134978
0.137817
0.139711
0.143013
0.143316
0.134353
0.114218
0.0869041
0.0590621
0.0359767
0.0197496
0.00982926
0.00446115
0.00185649
0.000711874
0.000252647
8.33248e-05
2.56304e-05
7.37707e-06
1.99273e-06
5.06558e-07
1.21477e-07
2.75374e-08
5.87466e-09
9.72887e-10
2.87468e-09
1.69903e-08
7.74474e-08
3.31575e-07
1.33967e-06
5.09692e-06
1.82114e-05
6.09277e-05
0.000190234
0.000552297
0.0014849
0.00368017
0.00836493
0.0173376
0.0325613
0.0550381
0.083172
0.111788
0.133578
0.143478
0.143011
0.139427
0.138279
0.136476
0.124664
0.0970314
0.0569777
0.0138227
-0.0228163
-0.0470989
-0.0607753
-0.0723822
-0.0889407
-0.108954
-0.124769
-0.131078
-0.129349
-0.123562
-0.115992
-0.107698
-0.0989186
-0.0893243
-0.0788819
-0.0680647
-0.0573444
-0.0474637
-0.0389674
-0.0322837
-0.027714
-0.0253885
-0.0253885
-0.0277139
-0.0322837
-0.0389677
-0.0474643
-0.0573456
-0.0680664
-0.0788842
-0.089327
-0.0989214
-0.107701
-0.115995
-0.123566
-0.129354
-0.131084
-0.124775
-0.108957
-0.0889409
-0.0723816
-0.0607766
-0.0471025
-0.02282
0.0138214
0.0569801
0.097037
0.12467
0.13648
0.13828
0.139427
0.143013
0.143481
0.133582
0.11179
0.083172
0.0550363
0.032559
0.0173356
0.00836351
0.00367933
0.00148446
0.000552098
0.000190151
6.08965e-05
1.82006e-05
5.09344e-06
1.33863e-06
3.31285e-07
7.7372e-08
1.6972e-08
2.87131e-09
8.03316e-09
4.64634e-08
2.05865e-07
8.54879e-07
3.3443e-06
1.22959e-05
4.2364e-05
0.00013633
0.000408282
0.00113325
0.00290196
0.00682011
0.0146242
0.0284228
0.0497068
0.0776312
0.107547
0.131765
0.143822
0.14395
0.139711
0.138279
0.137015
0.124677
0.0940128
0.0500321
0.00420657
-0.034295
-0.0604401
-0.0749621
-0.0861337
-0.101949
-0.120189
-0.131022
-0.128338
-0.116135
-0.101765
-0.0871164
-0.0714698
-0.0550805
-0.0381608
-0.0213388
-0.00600654
0.00695799
0.0172766
0.0246869
0.0298204
0.0329542
0.0347575
0.0355307
0.0355312
0.0347588
0.0329563
0.0298233
0.0246902
0.0172801
0.00696127
-0.00600389
-0.0213372
-0.0381604
-0.0550811
-0.0714712
-0.0871185
-0.101768
-0.11614
-0.128345
-0.13103
-0.120194
-0.101951
-0.0861341
-0.0749641
-0.0604439
-0.0342988
0.00420476
0.0500339
0.0940184
0.124684
0.13702
0.13828
0.139711
0.143951
0.143825
0.131769
0.107549
0.0776307
0.0497048
0.0284205
0.0146224
0.00681888
0.00290127
0.00113291
0.000408132
0.00013627
4.2342e-05
1.22886e-05
3.34201e-06
8.54216e-07
2.05685e-07
4.64184e-08
8.02467e-09
2.12533e-08
1.20274e-07
5.17726e-07
2.08406e-06
7.88857e-06
2.80065e-05
9.29617e-05
0.000287456
0.000824718
0.00218538
0.0053209
0.0118337
0.0238791
0.0433927
0.0704336
0.10131
0.128429
0.143888
0.14572
0.14071
0.137816
0.136476
0.124677
0.0928584
0.0463872
-0.00117511
-0.0415375
-0.0713821
-0.0886186
-0.0980853
-0.109073
-0.121194
-0.124065
-0.111431
-0.0893904
-0.0691141
-0.0524224
-0.0351508
-0.0183179
-0.00416367
0.00651532
0.0125739
0.0135949
0.0111694
0.00617835
7.46706e-05
-0.0058129
-0.0109902
-0.0145575
-0.0164851
-0.016485
-0.0145571
-0.0109894
-0.00581136
7.70133e-05
0.00618172
0.0111738
0.0136001
0.0125797
0.00652082
-0.00415906
-0.0183146
-0.0351489
-0.0524215
-0.0691134
-0.0893918
-0.111437
-0.124072
-0.1212
-0.109076
-0.0980876
-0.0886223
-0.0713864
-0.041541
-0.00117695
0.0463886
0.0928638
0.124684
0.13648
0.137817
0.14071
0.145722
0.143892
0.128432
0.101311
0.0704325
0.0433906
0.023877
0.011832
0.00531989
0.00218484
0.000824463
0.000287347
9.29201e-05
2.79919e-05
7.88381e-06
2.08263e-06
5.17324e-07
1.2017e-07
2.12332e-08
5.32377e-08
2.94736e-07
1.23214e-06
4.80567e-06
1.7591e-05
6.02674e-05
0.000192583
0.000571723
0.00156981
0.00396643
0.00916907
0.0192637
0.0365059
0.0618794
0.093
0.123006
0.142929
0.147983
0.142758
0.137406
0.134974
0.124664
0.0940128
0.0463872
-0.0028627
-0.0450883
-0.0792215
-0.100097
-0.105945
-0.107574
-0.1111
-0.107722
-0.0904622
-0.0655269
-0.0459689
-0.0349619
-0.0237833
-0.0128828
-0.00865948
-0.0104364
-0.0167753
-0.0269442
-0.0381677
-0.0479672
-0.0567582
-0.0626901
-0.0671412
-0.0697128
-0.0712316
-0.0718776
-0.0718779
-0.0712326
-0.0697144
-0.0671432
-0.0626923
-0.0567603
-0.0479687
-0.0381681
-0.026943
-0.0167723
-0.0104321
-0.00865436
-0.012878
-0.0237802
-0.0349591
-0.0459652
-0.0655252
-0.0904649
-0.107728
-0.111105
-0.107577
-0.10595
-0.100102
-0.0792264
-0.0450915
-0.0028645
0.0463886
0.0940184
0.12467
0.134978
0.137406
0.142759
0.147987
0.142933
0.123008
0.0930003
0.0618779
0.0365038
0.0192618
0.0091677
0.00396563
0.0015694
0.00057154
0.000192509
6.024e-05
1.75817e-05
4.80275e-06
1.23129e-06
2.94508e-07
5.31925e-08
1.26296e-07
6.8402e-07
2.77652e-06
1.04891e-05
3.71156e-05
0.000122656
0.000377131
0.00107422
0.00282071
0.00678974
0.0148858
0.0295053
0.0524306
0.0827656
0.115035
0.139995
0.150013
0.146069
0.137952
0.132969
0.124198
0.0970314
0.0500321
-0.00117511
-0.0450883
-0.0821465
-0.106707
-0.109316
-0.100227
-0.0962224
-0.0925595
-0.0783519
-0.0572534
-0.0410233
-0.0357307
-0.031379
-0.0238675
-0.0251444
-0.0337142
-0.042142
-0.0498101
-0.0554552
-0.0562701
-0.0547736
-0.0517834
-0.046992
-0.0435513
-0.0395556
-0.037492
-0.0360398
-0.0360399
-0.0374924
-0.0395562
-0.0435525
-0.0469937
-0.051786
-0.0547768
-0.0562737
-0.0554591
-0.0498129
-0.0421434
-0.0337138
-0.0251413
-0.023864
-0.0313773
-0.0357283
-0.0410193
-0.0572511
-0.078353
-0.092562
-0.0962236
-0.100229
-0.109322
-0.106714
-0.0821517
-0.0450915
-0.00117695
0.0500339
0.097037
0.124204
0.132971
0.137952
0.146071
0.150017
0.139998
0.115037
0.0827651
0.0524288
0.0295032
0.0148841
0.00678864
0.00282011
0.00107393
0.000377007
0.000122608
3.70985e-05
1.04834e-05
2.77482e-06
6.83549e-07
1.262e-07
2.83911e-07
1.50446e-06
5.92916e-06
2.16928e-05
7.419e-05
0.000236443
0.000699327
0.00191059
0.00479575
0.0109916
0.0228394
0.0426742
0.071041
0.104353
0.134136
0.150636
0.150345
0.140416
0.131461
0.122875
0.10069
0.0569777
0.00420657
-0.0415375
-0.0792215
-0.106707
-0.110038
-0.0938349
-0.0844603
-0.0851548
-0.0778679
-0.061054
-0.0450133
-0.0381703
-0.036772
-0.0299121
-0.029635
-0.0398579
-0.0440203
-0.0427222
-0.0398887
-0.0339873
-0.02578
-0.0210439
-0.0147923
-0.0115712
-0.0088873
-0.00698779
-0.00628217
-0.00565678
-0.00565656
-0.00628183
-0.00698704
-0.00888653
-0.0115703
-0.0147914
-0.0210437
-0.0257801
-0.0339889
-0.0398913
-0.0427251
-0.0440238
-0.0398599
-0.0296332
-0.0299102
-0.0367715
-0.0381684
-0.0450107
-0.0610534
-0.0778696
-0.0851559
-0.0844587
-0.0938351
-0.110044
-0.106714
-0.0792264
-0.041541
0.00420476
0.0569801
0.100696
0.12288
0.131463
0.140417
0.150348
0.15064
0.134139
0.104353
0.0710398
0.0426722
0.0228374
0.0109902
0.00479492
0.00191016
0.000699131
0.000236363
7.41602e-05
2.16826e-05
5.92597e-06
1.50354e-06
2.83719e-07
6.05314e-07
3.13915e-06
1.20134e-05
4.25703e-05
0.000140725
0.000432535
0.00123065
0.00322478
0.00773712
0.0168822
0.0332391
0.0585247
0.091239
0.124698
0.148397
0.154488
0.14527
0.131944
0.121024
0.103449
0.0660672
0.0138227
-0.034295
-0.0713821
-0.100097
-0.109316
-0.0938349
-0.0801949
-0.0837008
-0.0823653
-0.0662403
-0.0473863
-0.0345508