/*--------------------------------*- C++ -*----------------------------------*\
  =========                 |
  \\      /  F ield         | OpenFOAM: The Open Source CFD Toolbox
   \\    /   O peration     | Website:  https://openfoam.org
    \\  /    A nd           | Version:  10
     \\/     M anipulation  |
\*---------------------------------------------------------------------------*/
FoamFile
{
    format      ascii;
    class       volScalarField;
    location    "94";
    object      h;
}
// * * * * * * * * * * * * * * * * * * * * * * * * * * * * * * * * * * * * * //

dimensions      [0 1 0 0 0 0 0];

internalField   nonuniform List<scalar> 
10000
(
8.7115e-06
8.33264e-06
-1.22549e-05
-1.04119e-05
4.32061e-05
0.00012252
0.000167845
0.000142765
7.07498e-05
2.7268e-05
9.2011e-05
0.000272623
0.00046538
0.000532987
0.000449528
0.000354411
0.00045872
0.000907371
0.0017068
0.0027254
0.00374205
0.00453617
0.00498076
0.00507586
0.00489639
0.0045209
0.00399224
0.00328803
0.0023207
0.00102625
-0.000524409
-0.0021296
-0.00358618
-0.00482568
-0.00594405
-0.00710001
-0.00834358
-0.00950509
-0.0102599
-0.0103224
-0.00959192
-0.00814487
-0.00613489
-0.00370752
-0.000969974
0.00197518
0.00495168
0.00766415
0.00974795
0.0108814
0.0108816
0.00974864
0.00766523
0.00495307
0.00197672
-0.000968471
-0.00370626
-0.00613407
-0.00814461
-0.00959227
-0.0103233
-0.0102613
-0.00950682
-0.00834545
-0.00710183
-0.00594563
-0.00482687
-0.0035869
-0.00212981
-0.000524145
0.00102689
0.0023216
0.00328904
0.00399325
0.0045218
0.00489712
0.0050764
0.00498114
0.00453643
0.00374221
0.00272549
0.00170681
0.000907305
0.000458593
0.000354249
0.000449358
0.000532828
0.000465237
0.000272498
9.19061e-05
2.71906e-05
7.07046e-05
0.000142751
0.000167853
0.000122533
4.32078e-05
-1.04298e-05
-1.22851e-05
8.3056e-06
8.70072e-06
8.33264e-06
-2.24711e-05
-0.00010194
-0.000106952
4.19548e-05
0.000265037
0.000391404
0.00032068
0.000121387
5.30595e-06
0.00019633
0.00071971
0.00128958
0.00152501
0.00135754
0.00118029
0.00158064
0.00295554
0.00531608
0.00829006
0.0112518
0.0135714
0.0148791
0.0151648
0.0146338
0.0135091
0.0119203
0.00981058
0.00692736
0.00308246
-0.00151544
-0.00626999
-0.0105795
-0.0142405
-0.0175342
-0.0209258
-0.024561
-0.0279441
-0.0301288
-0.0302852
-0.0281258
-0.0238851
-0.0180197
-0.0109476
-0.0029635
0.0056474
0.0143711
0.0223372
0.028469
0.0318099
0.0318106
0.0284709
0.0223402
0.0143749
0.00565169
-0.00295935
-0.0109442
-0.0180175
-0.0238845
-0.0281268
-0.0302878
-0.0301328
-0.0279489
-0.0245662
-0.0209309
-0.0175387
-0.0142439
-0.0105816
-0.0062707
-0.00151482
0.00308418
0.00692984
0.00981344
0.0119232
0.0135117
0.014636
0.0151664
0.0148802
0.0135722
0.0112524
0.00829033
0.00531612
0.00295536
0.0015803
0.00117986
0.0013571
0.0015246
0.00128921
0.000719376
0.000196037
5.07561e-06
0.000121238
0.000320616
0.000391402
0.000265054
4.19436e-05
-0.000107009
-0.000102024
-2.25423e-05
8.30533e-06
-1.22549e-05
-0.00010194
-0.000247707
-0.000263039
-4.11768e-05
0.000284563
0.000460011
0.000350105
6.60759e-05
-8.40136e-05
0.000223623
0.00103364
0.00194265
0.00240755
0.00234128
0.00232252
0.00319213
0.00550005
0.00924509
0.0138831
0.018494
0.0221299
0.0242105
0.0246853
0.023833
0.0219822
0.0193501
0.0158731
0.0111644
0.00492419
-0.00251364
-0.0101867
-0.0171231
-0.0229961
-0.0282602
-0.0336595
-0.0394245
-0.0447675
-0.0481918
-0.04839
-0.0449246
-0.0381965
-0.0289475
-0.0178173
-0.00521685
0.00844361
0.0223516
0.0351038
0.0449559
0.0503398
0.0503408
0.0449588
0.0351083
0.0223573
0.00844978
-0.00521096
-0.0178125
-0.0289445
-0.0381957
-0.0449262
-0.0483939
-0.0481974
-0.0447744
-0.039432
-0.033667
-0.0282668
-0.0230014
-0.0171266
-0.0101882
-0.00251312
0.00492643
0.0111679
0.0158773
0.0193545
0.0219863
0.0238365
0.0246881
0.0242126
0.0221314
0.0184949
0.0138836
0.0092452
0.00549981
0.00319165
0.00232191
0.00234067
0.002407
0.00194215
0.00103317
0.000223177
-8.43971e-05
6.57933e-05
0.000349941
0.000459947
0.000284542
-4.12186e-05
-0.000263127
-0.000247816
-0.000102025
-1.22856e-05
-1.04119e-05
-0.000106952
-0.000263039
-0.000259439
1.03665e-05
0.000371389
0.000538368
0.000392235
8.76414e-05
-2.88762e-05
0.000397631
0.00142323
0.00260625
0.00334694
0.00356914
0.00394296
0.00539769
0.00850792
0.0132484
0.0190122
0.0247521
0.029339
0.0320267
0.0326759
0.0315515
0.029029
0.025411
0.0206693
0.0143346
0.00601951
-0.00383745
-0.0139614
-0.0230674
-0.0307389
-0.0375988
-0.0446399
-0.0521636
-0.0591329
-0.0635898
-0.0638339
-0.0593192
-0.0506131
-0.0387061
-0.024386
-0.00808957
0.0097229
0.0279964
0.0448534
0.0579426
0.0651226
0.0651237
0.0579459
0.0448586
0.0280028
0.00972979
-0.0080831
-0.0243809
-0.038703
-0.0506125
-0.0593212
-0.0638383
-0.0635962
-0.0591407
-0.0521721
-0.0446486
-0.0376068
-0.0307456
-0.0230722
-0.0139639
-0.00383758
0.00602156
0.0143383
0.0206742
0.0254163
0.0290342
0.0315561
0.0326797
0.0320297
0.0293412
0.0247536
0.019013
0.0132487
0.0085077
0.00539714
0.00394226
0.00356843
0.0033463
0.00260565
0.00142264
0.000397043
-2.94188e-05
8.72004e-05
0.000391935
0.000538201
0.000371302
1.0295e-05
-0.000259526
-0.000263127
-0.000107011
-1.04302e-05
4.32061e-05
4.19548e-05
-4.11768e-05
1.03665e-05
0.00028358
0.00059032
0.000682611
0.000516194
0.000287074
0.00031194
0.000895094
0.00208498
0.00347588
0.00451786
0.00517591
0.00611496
0.00818511
0.0118588
0.0170824
0.0233109
0.0295569
0.0346604
0.0377537
0.0385471
0.0371923
0.0340466
0.0294991
0.0236135
0.0159127
0.00596365
-0.00571516
-0.0176134
-0.0282208
-0.037089
-0.045019
-0.0532287
-0.0620792
-0.0703272
-0.0756426
-0.0760189
-0.0708442
-0.0608404
-0.0471909
-0.0307471
-0.0118821
0.00897313
0.0305937
0.050702
0.0664118
0.0750648
0.0750659
0.066415
0.0507069
0.0305997
0.00897948
-0.0118763
-0.0307426
-0.0471884
-0.0608403
-0.0708465
-0.0760233
-0.0756489
-0.0703347
-0.0620876
-0.0532374
-0.0450274
-0.0370965
-0.0282266
-0.017617
-0.00571635
0.00596486
0.015916
0.0236183
0.0295048
0.0340525
0.0371978
0.0385519
0.0377576
0.0346634
0.029559
0.0233122
0.017083
0.0118587
0.0081846
0.00611422
0.00517513
0.00451713
0.00347517
0.00208426
0.000894366
0.000311248
0.000286482
0.000515752
0.000682328
0.000590154
0.000283477
1.02952e-05
-4.12192e-05
4.19428e-05
4.32078e-05
0.00012252
0.000265037
0.000284563
0.000371389
0.00059032
0.000775893
0.000775804
0.000658691
0.000643203
0.000944991
0.00174127
0.00305356
0.00457623
0.00590565
0.0070821
0.00869198
0.0113718
0.0153875
0.0206502
0.0267776
0.0330004
0.0382557
0.0415857
0.0424887
0.0409125
0.0371437
0.0316679
0.024708
0.0158732
0.00474586
-0.00809582
-0.0209974
-0.0323325
-0.0416948
-0.0500825
-0.0589233
-0.0686321
-0.0778009
-0.0838131
-0.0844468
-0.079074
-0.0685551
-0.054198
-0.0368318
-0.0166837
0.00592762
0.0296993
0.052047
0.069635
0.079364
0.0793649
0.0696374
0.0520506
0.0297038
0.00593229
-0.0166795
-0.0368287
-0.0541965
-0.0685555
-0.0790763
-0.0844507
-0.0838184
-0.0778073
-0.0686394
-0.0589311
-0.0500905
-0.0417023
-0.0323389
-0.021002
-0.0080982
0.00474582
0.0158754
0.0247119
0.031673
0.0371495
0.0409183
0.0424942
0.0415905
0.0382596
0.0330034
0.0267796
0.0206513
0.0153878
0.0113715
0.00869135
0.00708132
0.00590483
0.00457541
0.00305272
0.00174043
0.000944195
0.000642504
0.000658136
0.000775404
0.000775626
0.000590156
0.000371304
0.000284542
0.000265054
0.000122534
0.000167845
0.000391404
0.000460011
0.000538368
0.000682611
0.000775804
0.000780478
0.000868774
0.00123757
0.001939
0.00297304
0.00432951
0.00585746
0.00737784
0.0090425
0.0113228
0.0145622
0.0187524
0.0237544
0.0294018
0.035242
0.0403955
0.0438368
0.0448076
0.0429905
0.0385703
0.0321433
0.0241526
0.0143867
0.0025117
-0.0108486
-0.0239906
-0.0352864
-0.0444458
-0.0526804
-0.0616112
-0.071702
-0.0814184
-0.0879432
-0.0889385
-0.0838226
-0.0735846
-0.0595886
-0.0425585
-0.0224989
0.000471195
0.0250792
0.0485441
0.06718
0.0775377
0.0775381
0.0671812
0.0485458
0.0250812
0.000473308
-0.0224971
-0.0425574
-0.0595885
-0.0735855
-0.0838246
-0.0889415
-0.0879471
-0.0814231
-0.0717075
-0.0616174
-0.0526871
-0.0444526
-0.0352926
-0.0239957
-0.010852
0.00251025
0.0143872
0.024155
0.0321472
0.0385752
0.042996
0.0448132
0.043842
0.0404001
0.0352458
0.0294047
0.0237563
0.0187533
0.0145624
0.0113225
0.00904187
0.00737704
0.00585658
0.0043286
0.00297214
0.00193816
0.00123682
0.000868135
0.000779959
0.000775405
0.00068233
0.000538203
0.000459948
0.000391402
0.000167854
0.000142765
0.00032068
0.000350105
0.000392235
0.000516194
0.000658691
0.000868774
0.00136542
0.00226556
0.00342361
0.00465564
0.00593557
0.00730323
0.00884512
0.0108447
0.0136497
0.0172876
0.0214532
0.0259442
0.0308204
0.0359888
0.0408095
0.0442214
0.0452038
0.0431515
0.0381304
0.0308439
0.0219778
0.0115575
-0.000612812
-0.0138748
-0.0265605
-0.0371418
-0.0455014
-0.053063
-0.0616128
-0.0716495
-0.0815465
-0.0883724
-0.08978
-0.0853055
-0.0760688
-0.0634358
-0.0479519
-0.0293258
-0.00739015
0.0167237
0.0401581
0.0589894
0.0695172
0.0695171
0.058989
0.0401575
0.0167229
-0.00739102
-0.0293268
-0.047953
-0.063437
-0.0760703
-0.0853073
-0.089782
-0.0883747
-0.0815492
-0.0716528
-0.0616169
-0.0530679
-0.0455068
-0.0371474
-0.0265656
-0.013879
-0.000615593
0.0115562
0.0219783
0.030846
0.0381339
0.0431559
0.0452089
0.0442267
0.0408146
0.0359933
0.0308241
0.025947
0.0214551
0.0172886
0.01365
0.0108444
0.00884447
0.00730239
0.00593466
0.00465473
0.00342276
0.00226479
0.00136471
0.000868136
0.000658137
0.000515754
0.000391935
0.000349941
0.000320615
0.000142751
7.07498e-05
0.000121387
6.60759e-05
8.76414e-05
0.000287074
0.000643203
0.00123757
0.00226556
0.00372631
0.00529384
0.00664399
0.00776158
0.00887374
0.0103097
0.0124615
0.0155494
0.0193037
0.023145
0.0268108
0.0305781
0.0347259
0.0389044
0.0420827
0.0430252
0.0408532
0.0354928
0.0277017
0.0183584
0.00771721
-0.00425755
-0.016878
-0.0285645
-0.037952
-0.0451181
-0.0516724
-0.0595185
-0.0691637
-0.0789185
-0.0858259
-0.0876346
-0.0840695
-0.0763965
-0.0659554
-0.0530625
-0.0370683
-0.0174431
0.00492263
0.0272199
0.0454176
0.0556715
0.0556708
0.0454158
0.0272171
0.0049192
-0.0174468
-0.0370718
-0.0530657
-0.0659581
-0.0763986
-0.0840711
-0.0876357
-0.0858267
-0.0789194
-0.0691649
-0.0595204
-0.0516753
-0.0451218
-0.0379564
-0.0285691
-0.0168823
-0.0042613
0.00771444
0.0183569
0.0277017
0.0354944
0.0408562
0.0430293
0.0420875
0.0389094
0.0347308
0.0305825
0.0268145
0.0231479
0.0193056
0.0155504
0.0124618
0.0103094
0.00887307
0.00776074
0.00664311
0.00529299
0.0037255
0.00226479
0.00123682
0.000642504
0.000286482
8.71988e-05
6.5791e-05
0.000121236
7.07047e-05
2.7268e-05
5.30595e-06
-8.40136e-05
-2.88762e-05
0.00031194
0.000944991
0.001939
0.00342361
0.00529384
0.00712192
0.00852709
0.00952416
0.0104677
0.0118314
0.0140378
0.0171644
0.0206913
0.0238283
0.0262821
0.0285363
0.0312426
0.0343979
0.0371056
0.0380135
0.0360117
0.0308459
0.0232114
0.0140426
0.0037389
-0.00759123
-0.0192202
-0.029657
-0.0376996
-0.0435956
-0.049084
-0.0561208
-0.0651867
-0.0745601
-0.0813463
-0.0834859
-0.080952
-0.0751814
-0.0674926
-0.0579577
-0.0455352
-0.029284
-0.00977286
0.0103662
0.0271478
0.0367057
0.0367048
0.027145
0.0103619
-0.00977819
-0.0292898
-0.0455408
-0.0579626
-0.0674965
-0.0751842
-0.0809537
-0.0834865
-0.0813462
-0.0745595
-0.0651862
-0.0561207
-0.0490849
-0.0435975
-0.0377025
-0.0296607
-0.0192243
-0.00759539
0.00373506
0.0140395
0.0232094
0.0308455
0.0360129
0.0380161
0.0371094
0.0344024
0.0312474
0.028541
0.0262864
0.023832
0.0206941
0.0171663
0.0140388
0.0118316
0.0104674
0.00952353
0.0085263
0.00712107
0.00529299
0.00342276
0.00193816
0.000944194
0.000311247
-2.94218e-05
-8.44005e-05
5.07343e-06
2.71907e-05
9.2011e-05
0.00019633
0.000223623
0.000397631
0.000895094
0.00174127
0.00297304
0.00465564
0.00664399
0.00852709
0.0099637
0.010994
0.0119895
0.0134175
0.0156226
0.0185262
0.0214346
0.0234507
0.0243059
0.0246821
0.0255864
0.027406
0.0294923
0.0305003
0.0291469
0.0249383
0.0183409
0.0101434
0.000746877
-0.0096391
-0.0202172
-0.029525
-0.0364561
-0.0413543
-0.0460074
-0.0523513
-0.0608099
-0.0696661
-0.0761725
-0.0785371
-0.0770196
-0.0732486
-0.0685487
-0.0627731
-0.0544996
-0.0423668
-0.0265688
-0.00943931
0.00524409
0.0137307
0.0137296
0.00524099
-0.00944416
-0.0265749
-0.0423736
-0.0545064
-0.0627791
-0.0685535
-0.073252
-0.0770215
-0.0785376
-0.0761719
-0.0696647
-0.0608081
-0.0523498
-0.0460065
-0.0413544
-0.0364573
-0.0295273
-0.0202204
-0.00964306
0.000742547
0.0101392
0.0183374
0.0249361
0.0291462
0.0305012
0.0294946
0.0274094
0.0255905
0.0246867
0.0243106
0.023455
0.0214384
0.018529
0.0156245
0.0134185
0.0119898
0.0109937
0.00996311
0.0085263
0.00664311
0.00465473
0.00297214
0.00174043
0.000894365
0.000397041
0.000223175
0.000196036
9.19065e-05
0.000272623
0.00071971
0.00103364
0.00142323
0.00208498
0.00305356
0.00432951
0.00593557
0.00776158
0.00952416
0.010994
0.0122025
0.013407
0.0149163
0.0169106
0.0191809
0.0209807
0.0214476
0.0204152
0.0187456
0.0177443
0.01818
0.0197256
0.0211527
0.021062
0.0186611
0.0140134
0.0075476
-0.000491574
-0.00984224
-0.019588
-0.028193
-0.0345334
-0.0389449
-0.0431748
-0.049077
-0.057006
-0.0652955
-0.0714192
-0.0739024
-0.0732999
-0.071432
-0.0696545
-0.0676548
-0.0636883
-0.0560088
-0.0444171
-0.0308563
-0.0187553
-0.0116189
-0.0116199
-0.0187582
-0.0308608
-0.044423
-0.0560156
-0.0636952
-0.0676612
-0.0696598
-0.0714359
-0.0733022
-0.0739031
-0.0714186
-0.0652939
-0.0570037
-0.0490745
-0.0431726
-0.0389434
-0.0345329
-0.0281938
-0.0195901
-0.00984554
-0.000495877
0.00754279
0.0140087
0.0186573
0.0210595
0.0211517
0.0197262
0.018182
0.0177475
0.0187497
0.0204198
0.0214523
0.0209851
0.0191847
0.0169135
0.0149182
0.0134081
0.0122028
0.0109937
0.00952353
0.00776074
0.00593466
0.0043286
0.00305272
0.00208426
0.00142264
0.00103316
0.000719375
0.000272498
0.00046538
0.00128958
0.00194265
0.00260625
0.00347588
0.00457623
0.00585746
0.00730323
0.00887374
0.0104677
0.0119895
0.013407
0.0147497
0.0160676
0.0173569
0.0183653
0.0184607
0.0169863
0.0139651
0.0104045
0.00779641
0.00720058
0.00860369
0.0109491
0.0127627
0.0129136
0.010931
0.00671697
0.000237319
-0.00822245
-0.0175652
-0.0260692
-0.0324702
-0.0369863
-0.0412422
-0.0469686
-0.0544617
-0.0621595
-0.0678172
-0.0703062
-0.0704623
-0.0702705
-0.0711252
-0.0726079
-0.0727387
-0.0694532
-0.0621686
-0.0523873
-0.0430971
-0.0374575
-0.0374582
-0.0430994
-0.052391
-0.0621737
-0.0694591
-0.072745
-0.072614
-0.0711304
-0.0702746
-0.0704649
-0.0703075
-0.0678172
-0.0621583
-0.0544595
-0.0469657
-0.0412391
-0.0369836
-0.0324683
-0.0260685
-0.017566
-0.00822483
0.000233474
0.0067121
0.0109258
0.0129087
0.0127587
0.0109464
0.0086025
0.00720094
0.00779828
0.0104077
0.0139693
0.016991
0.0184655
0.0183698
0.0173606
0.0160705
0.0147517
0.0134081
0.0119898
0.0104674
0.00887307
0.00730239
0.00585658
0.00457541
0.00347517
0.00260565
0.00194215
0.00128921
0.000465238
0.000532987
0.00152501
0.00240755
0.00334694
0.00451786
0.00590565
0.00737784
0.00884512
0.0103097
0.0118314
0.0134175
0.0149163
0.0160676
0.0166412
0.0165049
0.0154993
0.0132914
0.00960372
0.00473377
-0.000215071
-0.00371676
-0.00458489
-0.00261631
0.00128485
0.00558137
0.00878823
0.00983665
0.00801725
0.0029613
-0.00501448
-0.0145644
-0.0236811
-0.030852
-0.0360765
-0.040783
-0.0465557
-0.0536604
-0.0606954
-0.065749
-0.0680603
-0.0687298
-0.0698733
-0.0729181
-0.0773943
-0.0811778
-0.0819574
-0.0787897
-0.0727179
-0.0662452
-0.062128
-0.0621286
-0.0662469
-0.0727207
-0.0787936
-0.081962
-0.0811829
-0.0773993
-0.0729226
-0.0698771
-0.0687327
-0.0680621
-0.0657496
-0.0606949
-0.0536586
-0.046553
-0.0407797
-0.0360731
-0.0308491
-0.0236792
-0.0145639
-0.00501577
0.00295831
0.0080129
0.00983148
0.00878288
0.00557643
0.00128079
-0.00261915
-0.00458621
-0.00371642
-0.000213147
0.00473704
0.00960796
0.0132962
0.015504
0.0165093
0.0166449
0.0160705
0.0149182
0.0134185
0.0118316
0.0103094
0.00884447
0.00737704
0.00590483
0.00451713
0.0033463
0.002407
0.0015246
0.000532828
0.000449528
0.00135754
0.00234128
0.00356914
0.00517591
0.0070821
0.0090425
0.0108447
0.0124615
0.0140378
0.0156226
0.0169106
0.0173569
0.0165049
0.0141975
0.0105066
0.00555356
-0.000423814
-0.00678657
-0.0123838
-0.01581
-0.0159439
-0.0125196
-0.00636903
0.000884814
0.00740036
0.0115047
0.0118682
0.00779424
-0.000330517
-0.0108463
-0.0213819
-0.0300885
-0.0366542
-0.04224
-0.0482635
-0.0549923
-0.061239
-0.0654696
-0.0673111
-0.0681204
-0.0701223
-0.0747783
-0.0816192
-0.0884589
-0.0928055
-0.0933802
-0.0907644
-0.086962
-0.0843036
-0.0843039
-0.086963
-0.0907662
-0.0933827
-0.0928086
-0.0884624
-0.0816227
-0.0747817
-0.0701254
-0.0681231
-0.0673133
-0.065471
-0.0612394
-0.0549913
-0.0482613
-0.0422369
-0.0366506
-0.030085
-0.0213791
-0.0108448
-0.000330605
0.00779247
0.0118649
0.0115002
0.00739518
0.000879443
-0.00637409
-0.0125238
-0.0159468
-0.0158113
-0.0123835
-0.00678461
-0.000420559
0.00555771
0.0105113
0.0142022
0.0165093
0.0173606
0.0169135
0.0156245
0.0140388
0.0124618
0.0108444
0.00904187
0.00708132
0.00517514
0.00356844
0.00234067
0.0013571
0.000449357
0.000354411
0.00118029
0.00232252
0.00394296
0.00611496
0.00869198
0.0113228
0.0136497
0.0155494
0.0171644
0.0185262
0.0191809
0.0183653
0.0154993
0.0105066
0.00378102
-0.00402927
-0.0121091
-0.0194477
-0.0248835
-0.0272497
-0.0256561
-0.0199298
-0.010932
-0.000411415
0.00944097
0.0163819
0.018504
0.014825
0.00584472
-0.00641715
-0.0191752
-0.0301775
-0.038718
-0.0456192
-0.0521099
-0.0584906
-0.0638374
-0.067026
-0.0680736
-0.0685739
-0.0708443
-0.0763944
-0.0848128
-0.093937
-0.101168
-0.104933
-0.105362
-0.103957
-0.102621
-0.102621
-0.103957
-0.105363
-0.104934
-0.10117
-0.0939387
-0.0848147
-0.0763963
-0.0708465
-0.0685762
-0.0680758
-0.067028
-0.0638386
-0.0584907
-0.0521087
-0.0456169
-0.0387148
-0.030174
-0.019172
-0.00641479
0.00584585
0.0148247
0.0185021
0.0163785
0.00943645
-0.000416738
-0.0109377
-0.0199351
-0.0256605
-0.0272526
-0.0248848
-0.0194473
-0.0121072
-0.00402608
0.00378511
0.0105113
0.015504
0.0183698
0.0191847
0.0185291
0.0171663
0.0155504
0.01365
0.0113225
0.00869135
0.00611422
0.00394226
0.00232191
0.00117986
0.000354247
0.00045872
0.00158064
0.00319213
0.00539769
0.00818511
0.0113718
0.0145622
0.0172876
0.0193037
0.0206913
0.0214346
0.0209807
0.0184607
0.0132914
0.00555356
-0.00402927
-0.0143167
-0.0239522
-0.0315736
-0.0360397
-0.0364944
-0.0323922
-0.0237725
-0.0116104
0.00219303
0.0151297
0.0244629
0.0277935
0.023913
0.0134592
-0.00118063
-0.0167943
-0.0306888
-0.0417001
-0.0502525
-0.0573709
-0.0634267
-0.0678122
-0.0698304
-0.0698533
-0.0696512
-0.0715924
-0.0772436
-0.0863166
-0.0967723
-0.106008
-0.112231
-0.11515
-0.115768
-0.115564
-0.115564
-0.115768
-0.11515
-0.112231
-0.106008
-0.0967724
-0.0863169
-0.0772442
-0.0715934
-0.0696527
-0.0698552
-0.0698325
-0.067814
-0.0634277
-0.0573709
-0.0502514
-0.0416979
-0.0306859
-0.0167911
-0.00117768
0.0134614
0.023914
0.0277931
0.0244609
0.0151261
0.00218818
-0.0116161
-0.0237784
-0.0323976
-0.0364986
-0.0360425
-0.0315748
-0.0239517
-0.0143147
-0.00402608
0.00555771
0.0132962
0.0184656
0.0209851
0.0214384
0.0206941
0.0193057
0.0172886
0.0145624
0.0113715
0.0081846
0.00539713
0.00319164
0.00158029
0.00045859
0.000907371
0.00295554
0.00550005
0.00850792
0.0118588
0.0153875
0.0187524
0.0214532
0.023145
0.0238283
0.0234507
0.0214476
0.0169863
0.00960372
-0.000423814
-0.0121091
-0.0239522
-0.0341831
-0.0411679
-0.0438245
-0.0416498
-0.0345133
-0.0227492
-0.00750306
0.00917299
0.0245314
0.0354801
0.0392721
0.0345591
0.0221272
0.00469651
-0.0141273
-0.0312107
-0.0448983
-0.0551799
-0.0628809
-0.068501
-0.0718179
-0.072579
-0.071451
-0.0702779
-0.0713985
-0.0764226
-0.0852453
-0.0960608
-0.106386
-0.114301
-0.119139
-0.121407
-0.122147
-0.122147
-0.121406
-0.119138
-0.1143
-0.106385
-0.0960599
-0.0852444
-0.076422
-0.0713983
-0.0702785
-0.0714522
-0.0725809
-0.07182
-0.0685028
-0.062882
-0.05518
-0.0448972
-0.0312086
-0.0141244
0.00469966
0.0221301
0.0345612
0.039273
0.0354794
0.024529
0.00916897
-0.00750832
-0.022755
-0.0345191
-0.0416549
-0.0438286
-0.0411706
-0.0341843
-0.0239517
-0.0121072
-0.000420555
0.00960796
0.016991
0.0214524
0.023455
0.023832
0.0231479
0.0214551
0.0187533
0.0153878
0.0118587
0.0085077
0.00549981
0.00295536
0.000907304
0.0017068
0.00531608
0.00924509
0.0132484
0.0170824
0.0206502
0.0237544
0.0259442
0.0268108
0.0262821
0.0243059
0.0204152
0.0139651
0.00473377
-0.00678657
-0.0194477
-0.0315736
-0.0411679
-0.0464482
-0.0464438
-0.0410303
-0.0305397
-0.0156687
0.00221838
0.0209374
0.0376166
0.0490088
0.052233
0.0459359
0.0310676
0.0106168
-0.0114952
-0.0317382
-0.047967
-0.0597268
-0.0676644
-0.0724796
-0.0744213
-0.0737169
-0.0712819
-0.0689334
-0.0688859
-0.0727584
-0.0806691
-0.0911344
-0.101887
-0.110955
-0.117326
-0.121004
-0.122577
-0.122577
-0.121003
-0.117325
-0.110954
-0.101886
-0.0911329
-0.0806675
-0.0727569
-0.0688848
-0.068933
-0.0712823
-0.0737181
-0.074423
-0.0724815
-0.0676661
-0.0597277
-0.0479669
-0.031737
-0.011493
0.0106197
0.0310708
0.0459387
0.0522349
0.0490092
0.0376153
0.0209344
0.00221399
-0.015674
-0.0305454
-0.0410359
-0.0464487
-0.0464522
-0.0411706
-0.0315748
-0.0194473
-0.00678461
0.00473705
0.0139693
0.0204198
0.0243106
0.0262864
0.0268145
0.025947
0.0237563
0.0206513
0.017083
0.0132487
0.0092452
0.00531612
0.00170681
0.0027254
0.00829006
0.0138831
0.0190122
0.0233109
0.0267776
0.0294018
0.0308204
0.0305781
0.0285363
0.0246821
0.0187456
0.0104045
-0.000215071
-0.0123838
-0.0248835
-0.0360397
-0.0438245
-0.0464438
-0.0430859
-0.0340099
-0.0200354
-0.00228385
0.017604
0.0373189
0.0539831
0.0644219
0.065883
0.0571897
0.0394936
0.0159731
-0.00925035
-0.0323369
-0.0506909
-0.0634233
-0.0710245
-0.0744519
-0.0745015
-0.0719309
-0.0678995
-0.0641466
-0.0627007
-0.0651585
-0.0718724
-0.0817143
-0.0926589
-0.102694
-0.110468
-0.11548
-0.117854
-0.117853
-0.115479
-0.110466
-0.102692
-0.0926574
-0.0817125
-0.0718706
-0.0651567
-0.0626991
-0.0641455
-0.0678991
-0.0719313
-0.0745026
-0.0744534
-0.0710261
-0.0634245
-0.0506915
-0.0323366
-0.00924899
0.0159754
0.0394965
0.0571926
0.0658853
0.0644232
0.053983
0.0373172
0.0176008
-0.00228824
-0.0200405
-0.0340154
-0.0430914
-0.0464487
-0.0438286
-0.0360425
-0.0248848
-0.0123835
-0.000213146
0.0104077
0.0187497
0.0246867
0.028541
0.0305825
0.0308241
0.0294047
0.0267796
0.0233123
0.019013
0.0138836
0.00829034
0.00272549
0.00374205
0.0112518
0.018494
0.0247521
0.0295569
0.0330004
0.035242
0.0359888
0.0347259
0.0312426
0.0255864
0.0177443
0.00779641
-0.00371676
-0.01581
-0.0272497
-0.0364944
-0.0416498
-0.0410303
-0.0340099
-0.0211954
-0.00387542
0.0163698
0.0375655
0.0572605
0.0726563
0.0808557
0.0794957
0.0677731
0.0470889
0.0207223
-0.00715295
-0.0325183
-0.0524063
-0.0655239
-0.0722115
-0.0736955
-0.0713444
-0.0664735
-0.0605054
-0.0551099
-0.052129
-0.0531286
-0.0586818
-0.067985
-0.0792043
-0.0902407
-0.0993946
-0.105692
-0.10883
-0.10883
-0.105691
-0.0993937
-0.0902395
-0.0792028
-0.0679832
-0.0586798
-0.0531266
-0.0521272
-0.0551085
-0.0605045
-0.0664732
-0.0713447
-0.0736962
-0.0722127
-0.0655252
-0.0524073
-0.0325188
-0.00715256
0.0207237
0.0470912
0.0677758
0.0794983
0.0808577
0.0726572
0.0572601
0.0375637
0.0163667
-0.00387961
-0.0212004
-0.0340154
-0.0410359
-0.0416549
-0.0364986
-0.0272526
-0.0158113
-0.00371643
0.00779828
0.0177475
0.0255905
0.0312474
0.0347308
0.0359933
0.0352458
0.0330034
0.029559
0.0247536
0.0184949
0.0112524
0.00374221
0.00453617
0.0135714
0.0221299
0.029339
0.0346604
0.0382557
0.0403955
0.0408095
0.0389044
0.0343979
0.027406
0.01818
0.00720058
-0.00458489
-0.0159439
-0.0256561
-0.0323922
-0.0345133
-0.0305397
-0.0200354
-0.00387542
0.0162686
0.0383884
0.0601551
0.0789573
0.0921246
0.0971857
0.0923731
0.0774166
0.0539934
0.0253748
-0.00438878
-0.0312663
-0.0520319
-0.0650333
-0.0704466
-0.0697221
-0.0647526
-0.0573781
-0.0492843
-0.0421073
-0.0375489
-0.0371664
-0.0417291
-0.0506895
-0.0623152
-0.0743547
-0.0847636
-0.0921706
-0.095951
-0.0959509
-0.0921704
-0.0847631
-0.0743537
-0.0623138
-0.0506877
-0.041727
-0.0371644
-0.0375471
-0.0421058
-0.0492832
-0.0573774
-0.0647523
-0.0697222
-0.0704472
-0.0650344
-0.0520332
-0.0312675
-0.00438923
0.0253754
0.053995
0.0774189
0.0923757
0.0971881
0.0921264
0.0789582
0.0601548
0.0383868
0.0162657
-0.00387961
-0.0200405
-0.0305454
-0.0345191
-0.0323976
-0.0256605
-0.0159468
-0.00458621
0.00720094
0.018182
0.0274094
0.0344024
0.0389094
0.0408146
0.0404001
0.0382596
0.0346634
0.0293412
0.0221314
0.0135722
0.00453642
0.00498076
0.0148791
0.0242105
0.0320267
0.0377537
0.0415857
0.0438368
0.0442214
0.0420827
0.0371056
0.0294923
0.0197256
0.00860369
-0.00261631
-0.0125196
-0.0199298
-0.0237725
-0.0227492
-0.0156687
-0.00228385
0.0163698
0.0383884
0.0614521
0.0829333
0.10008
0.110382
0.111881
0.103524
0.0856573
0.0602073
0.030299
-0.000332005
-0.0278208
-0.0488073
-0.0613293
-0.0653705
-0.0625228
-0.0550986
-0.0453702
-0.0352411
-0.0263337
-0.0202666
-0.0186223
-0.0223451
-0.0310772
-0.0431112
-0.0559995
-0.0673801
-0.0755879
-0.0798094
-0.0798094
-0.0755876
-0.0673796
-0.0559984
-0.0431096
-0.0310752
-0.022343
-0.0186203
-0.0202649
-0.0263324
-0.0352401
-0.0453694
-0.0550979
-0.0625225
-0.0653708
-0.0613302
-0.0488087
-0.0278222
-0.00033292
0.030299
0.0602083
0.0856592
0.103527
0.111883
0.110384
0.100082
0.0829343
0.0614518
0.0383868
0.0163667
-0.00228825
-0.015674
-0.022755
-0.0237784
-0.0199351
-0.0125238
-0.00261915
0.0086025
0.0197262
0.0294946
0.0371094
0.0420875
0.0442267
0.043842
0.0415905
0.0377576
0.0320297
0.0242126
0.0148802
0.00498114
0.00507586
0.0151648
0.0246853
0.0326759
0.0385471
0.0424887
0.0448076
0.0452038
0.0430252
0.0380135
0.0305003
0.0211527
0.0109491
0.00128485
-0.00636903
-0.010932
-0.0116104
-0.00750306
0.00221838
0.017604
0.0375655
0.0601551
0.0829333
0.103115
0.117884
0.124932
0.122843
0.111316
0.0913093
0.0649152
0.0349516
0.00465401
-0.0224409
-0.0429516
-0.054652
-0.0573092
-0.0525748
-0.0430683
-0.0313803
-0.0195529
-0.00917764
-0.0018158
0.000906499
-0.0021091
-0.0106511
-0.0230015
-0.0365127
-0.0485504
-0.0572497
-0.0617203
-0.0617201
-0.0572492
-0.0485495
-0.0365114
-0.0229998
-0.0106491
-0.00210713
0.000908289
-0.00181435
-0.00917653
-0.0195521
-0.0313796
-0.0430676
-0.0525744
-0.0573093
-0.0546526
-0.0429527
-0.0224422
0.00465308
0.0349514
0.0649157
0.0913104
0.111318
0.122845
0.124934
0.117887
0.103117
0.0829342
0.0601548
0.0375637
0.0176008
0.00221397
-0.00750833
-0.0116161
-0.0109377
-0.0063741
0.00128078
0.0109464
0.0211517
0.0305012
0.0380161
0.0430293
0.0452089
0.0448132
0.0424942
0.0385519
0.0326797
0.024688
0.0151664
0.0050764
0.00489639
0.0146338
0.023833
0.0315515
0.0371923
0.0409125
0.0429905
0.0431515
0.0408532
0.0360117
0.0291469
0.021062
0.0127627
0.00558137
0.000884814
-0.000411415
0.00219303
0.00917299
0.0209374
0.0373189
0.0572605
0.0789573
0.10008
0.117884
0.129616
0.133207
0.12778
0.113747
0.0926144
0.0665304
0.0378567
0.00917923
-0.0164184
-0.0356277
-0.0460141
-0.0471296
-0.0406358
-0.0293758
-0.0161625
-0.00309305
0.00831934
0.0165878
0.0200591
0.017512
0.00904331
-0.00360879
-0.017618
-0.030127
-0.0391397
-0.0437515
-0.0437513
-0.0391388
-0.0301258
-0.0176165
-0.00360723
0.00904485
0.0175134
0.0200605
0.0165889
0.00832027
-0.00309225
-0.0161617
-0.0293752
-0.0406353
-0.0471294
-0.0460143
-0.0356282
-0.0164191
0.00917862
0.0378563
0.0665304
0.0926147
0.113747
0.127781
0.133209
0.129618
0.117887
0.100082
0.0789582
0.0572601
0.0373172
0.0209344
0.00916895
0.00218816
-0.000416751
0.000879433
0.00557643
0.0127587
0.0210595
0.0291462
0.0360129
0.0408562
0.0431559
0.042996
0.0409183
0.0371978
0.0315561
0.0238364
0.0146359
0.00489711
0.0045209
0.0135091
0.0219822
0.029029
0.0340466
0.0371437
0.0385703
0.0381304
0.0354928
0.0308459
0.0249383
0.0186611
0.0129136
0.00878823
0.00740036
0.00944097
0.0151297
0.0245314
0.0376166
0.0539831
0.0726563
0.0921246
0.110382
0.124932
0.133207
0.133409
0.125134
0.109416
0.0882111
0.0636259
0.0374788
0.0116289
-0.0113694
-0.0283653
-0.0367948
-0.0360351
-0.0277414
-0.0149208
-0.000532199
0.0133401
0.025309
0.0339917
0.0377379
0.035246
0.0265436
0.013414
-0.00114816
-0.0141058
-0.0233845
-0.0281057
-0.0281053
-0.0233835
-0.0141045
-0.00114685
0.0134152
0.0265445
0.0352467
0.0377386
0.0339924
0.0253098
0.0133409
-0.000531415
-0.0149201
-0.0277407
-0.0360346
-0.0367945
-0.0283652
-0.0113695
0.0116287
0.0374785
0.0636255
0.0882106
0.109416
0.125134
0.13341
0.133209
0.124934
0.110384
0.0921264
0.0726572
0.0539829
0.0376153
0.024529
0.0151261
0.00943644
0.00739517
0.00878288
0.0129087
0.0186573
0.0249361
0.0308455
0.0354944
0.0381338
0.0385752
0.0371494
0.0340524
0.0290342
0.0219863
0.0135117
0.0045218
0.00399224
0.0119203
0.0193501
0.025411
0.0294991
0.0316679
0.0321433
0.0308439
0.0277017
0.0232114
0.0183409
0.0140134
0.010931
0.00983665
0.0115047
0.0163819
0.0244629
0.0354801
0.0490088
0.0644219
0.0808557
0.0971857
0.111881
0.122843
0.12778
0.125134
0.114855
0.0984357
0.0781546
0.0560234
0.0333197
0.0111953
-0.00834071
-0.0223695
-0.0283012
-0.0254047
-0.0153162
-0.00112937
0.0141409
0.0284822
0.040648
0.0493471
0.0529269
0.0500389
0.040711
0.0268416
0.0116207
-0.00176745
-0.0112414
-0.0160172
-0.0160169
-0.0112405
-0.00176636
0.0116217
0.0268423
0.0407115
0.0500392
0.0529272
0.0493474
0.0406486
0.0284828
0.0141416
-0.0011286
-0.0153155
-0.025404
-0.0283006
-0.0223691
-0.00834047
0.0111953
0.0333195
0.0560228
0.0781536
0.0984347
0.114855
0.125134
0.127781
0.122845
0.111883
0.0971881
0.0808577
0.0644232
0.0490092
0.0354794
0.0244609
0.0163785
0.0115002
0.00983147
0.0109258
0.0140087
0.0183373
0.0232094
0.0277017
0.0308459
0.0321471
0.031673
0.0295047
0.0254163
0.0193545
0.0119232
0.00399325
0.00328803
0.00981058
0.0158731
0.0206693
0.0236135
0.024708
0.0241526
0.0219778
0.0183584
0.0140426
0.0101434
0.0075476
0.00671697
0.00801725
0.0118682
0.018504
0.0277935
0.0392721
0.052233
0.065883
0.0794957
0.0923731
0.103524
0.111316
0.113747
0.109416
0.0984357
0.0825277
0.0641363
0.0451504
0.0263919
0.00841813
-0.0072575
-0.0180011
-0.0213049
-0.0163974
-0.00485375
0.0102779
0.026066
0.040639
0.0528674
0.0614687
0.0647175
0.0612181
0.0510765
0.0364087
0.0206539
0.00710582
-0.00226246
-0.00689778
-0.00689754
-0.00226183
0.00710668
0.0206548