/*--------------------------------*- C++ -*----------------------------------*\
  =========                 |
  \\      /  F ield         | OpenFOAM: The Open Source CFD Toolbox
   \\    /   O peration     | Website:  https://openfoam.org
    \\  /    A nd           | Version:  10
     \\/     M anipulation  |
\*---------------------------------------------------------------------------*/
FoamFile
{
    format      ascii;
    class       volScalarField;
    location    "94";
    object      h_0;
}
// * * * * * * * * * * * * * * * * * * * * * * * * * * * * * * * * * * * * * //

dimensions      [0 1 0 0 0 0 0];

internalField   nonuniform List<scalar> 
10000
(
7.9898e-06
6.43475e-06
-1.41584e-05
-1.04425e-05
4.6048e-05
0.000127106
0.000171954
0.000145603
7.38042e-05
3.21169e-05
9.79619e-05
0.000276975
0.000465303
0.000527154
0.0004388
0.000341709
0.000447806
0.000900338
0.00170219
0.00271932
0.00373118
0.00451976
0.00496102
0.00505778
0.00488669
0.00452584
0.00401517
0.00332833
0.00237463
0.00108877
-0.000458171
-0.00206429
-0.00352744
-0.00478114
-0.00592185
-0.00710544
-0.00837671
-0.00956105
-0.010331
-0.0104005
-0.00966969
-0.00821558
-0.00619125
-0.00374254
-0.000979802
0.00198892
0.00498232
0.00770299
0.00978818
0.0109205
0.0109208
0.00978886
0.00770407
0.0049837
0.00199046
-0.000978307
-0.00374129
-0.00619043
-0.00821533
-0.00967005
-0.0104014
-0.0103324
-0.00956279
-0.00837858
-0.00710725
-0.00592342
-0.00478233
-0.00352815
-0.00206449
-0.000457898
0.00108942
0.00237553
0.00332935
0.00401618
0.00452673
0.00488741
0.00505831
0.0049614
0.00452001
0.00373135
0.0027194
0.0017022
0.000900271
0.00044768
0.000341548
0.000438631
0.000526996
0.000465161
0.00027685
9.78578e-05
3.204e-05
7.37592e-05
0.000145589
0.000171962
0.00012712
4.60501e-05
-1.04601e-05
-1.41886e-05
6.4076e-06
7.97895e-06
6.43475e-06
-2.76825e-05
-0.000107754
-0.00010858
4.70884e-05
0.000273703
0.000397438
0.000322207
0.000123221
1.25745e-05
0.00020761
0.000727746
0.00128657
0.00150712
0.00132677
0.00114426
0.00154938
0.00293459
0.00530119
0.00827045
0.0112186
0.013523
0.0148222
0.0151141
0.0146088
0.0135278
0.0119921
0.00993301
0.00708884
0.00326766
-0.00132117
-0.00608018
-0.0104101
-0.0141129
-0.0174713
-0.020942
-0.0246558
-0.0281029
-0.0303293
-0.0305043
-0.0283435
-0.0240826
-0.0181764
-0.0110436
-0.00298745
0.00569072
0.0144621
0.0224507
0.0285852
0.0319221
0.0319227
0.0285871
0.0224537
0.014466
0.00569498
-0.00298333
-0.0110402
-0.0181742
-0.024082
-0.0283446
-0.030507
-0.0303332
-0.0281077
-0.024661
-0.0209471
-0.0174757
-0.0141163
-0.0104122
-0.00608087
-0.00132053
0.00326941
0.00709134
0.00993588
0.011995
0.0135304
0.0146109
0.0151157
0.0148234
0.0135238
0.0112191
0.00827071
0.00530123
0.00293441
0.00154904
0.00114382
0.00132633
0.00150671
0.0012862
0.000727413
0.00020732
1.23455e-05
0.000123072
0.000322143
0.000397437
0.000273721
4.70783e-05
-0.000108637
-0.000107839
-2.77539e-05
6.40732e-06
-1.41584e-05
-0.000107754
-0.000255187
-0.000266574
-3.76236e-05
0.00029028
0.000458928
0.000340147
5.56884e-05
-8.57905e-05
0.000229504
0.00103732
0.00193317
0.00237908
0.00229565
0.00226928
0.00314459
0.00546549
0.00921709
0.0138464
0.018437
0.022052
0.0241232
0.0246115
0.0238029
0.0220236
0.0194767
0.0160793
0.01143
0.00522306
-0.00220593
-0.00989161
-0.0168644
-0.022805
-0.02817
-0.0336906
-0.0395735
-0.04501
-0.048493
-0.0487158
-0.0452463
-0.0384873
-0.029177
-0.0179549
-0.00524513
0.00851722
0.0224961
0.035279
0.0451312
0.0505065
0.0505075
0.0451341
0.0352835
0.0225017
0.00852336
-0.00523927
-0.0179501
-0.0291741
-0.0384866
-0.045248
-0.0487197
-0.0484987
-0.0450169
-0.039581
-0.033698
-0.0281766
-0.0228102
-0.0168678
-0.00989304
-0.00220537
0.00522534
0.0114336
0.0160836
0.0194811
0.0220277
0.0238064
0.0246142
0.0241252
0.0220534
0.0184379
0.0138469
0.00921719
0.00546524
0.0031441
0.00226867
0.00229504
0.00237852
0.00193267
0.00103685
0.000229062
-8.61722e-05
5.54058e-05
0.000339983
0.000458864
0.00029026
-3.7664e-05
-0.000266661
-0.000255296
-0.000107839
-1.41892e-05
-1.04425e-05
-0.00010858
-0.000266574
-0.000260527
1.46828e-05
0.000375297
0.000531389
0.000372431
6.61346e-05
-4.01756e-05
0.000396361
0.00142137
0.0025919
0.00331341
0.00351706
0.00388092
0.00533896
0.00845994
0.0132039
0.0189551
0.0246716
0.0292373
0.0319198
0.0325923
0.0315292
0.0291026
0.0255962
0.0209565
0.0146943
0.00641476
-0.00344059
-0.013591
-0.0227519
-0.0305147
-0.0375044
-0.044697
-0.0523636
-0.0594415
-0.0639624
-0.06423
-0.0597069
-0.0509623
-0.0389809
-0.0245483
-0.00811733
0.00981963
0.0281767
0.0450647
0.0581463
0.0653105
0.0653116
0.0581496
0.0450698
0.0281831
0.00982649
-0.0081109
-0.0245432
-0.0389779
-0.0509618
-0.059709
-0.0642346
-0.0639689
-0.0594493
-0.0523721
-0.0447056
-0.0375124
-0.0305214
-0.0227566
-0.0135934
-0.00344067
0.00641685
0.0146981
0.0209615
0.0256016
0.0291078
0.0315338
0.0325961
0.0319227
0.0292395
0.024673
0.0189559
0.0132041
0.00845971
0.0053384
0.00388021
0.00351635
0.00331276
0.00259131
0.00142079
0.000395778
-4.07158e-05
6.56938e-05
0.00037213
0.000531223
0.000375211
1.46129e-05
-0.000260613
-0.000266661
-0.000108638
-1.04606e-05
4.6048e-05
4.70884e-05
-3.76236e-05
1.46828e-05
0.000291825
0.000597336
0.000677812
0.000497441
0.00026583
0.000300246
0.000892368
0.00208081
0.00345963
0.00448371
0.00512335
0.00604985
0.00811841
0.0117972
0.0170196
0.0232334
0.029458
0.0345463
0.0376427
0.0384702
0.0371908
0.0341587
0.0297412
0.0239717
0.0163491
0.00643136
-0.00525836
-0.0172004
-0.0278822
-0.0368622
-0.0449428
-0.0533221
-0.0623263
-0.0706844
-0.0760584
-0.0764506
-0.0712616
-0.061215
-0.0474852
-0.0309189
-0.0119065
0.00908338
0.030789
0.0509198
0.0666087
0.0752358
0.0752369
0.0666119
0.0509247
0.030795
0.0090897
-0.0119007
-0.0309144
-0.0474827
-0.0612149
-0.0712639
-0.0764551
-0.0760647
-0.070692
-0.0623347
-0.0533308
-0.0449512
-0.0368697
-0.0278879
-0.017204
-0.0052595
0.00643262
0.0163524
0.0239765
0.0297469
0.0341645
0.0371963
0.038475
0.0376466
0.0345493
0.0294602
0.0232347
0.0170202
0.0117972
0.00811789
0.0060491
0.00512257
0.00448297
0.00345893
0.00208009
0.000891645
0.000299557
0.000265239
0.000497
0.00067753
0.000597172
0.000291724
1.46132e-05
-3.76646e-05
4.70775e-05
4.60502e-05
0.000127106
0.000273703
0.00029028
0.000375297
0.000597336
0.000783646
0.000775192
0.000646961
0.000629522
0.000938285
0.00173869
0.00304522
0.0045547
0.00586814
0.0070281
0.00862423
0.0112979
0.0153132
0.0205715
0.0266865
0.032896
0.0381474
0.0414912
0.0424369
0.0409436
0.0372965
0.0319589
0.0251204
0.016363
0.00525875
-0.00760817
-0.0205709
-0.0319973
-0.0414863
-0.0500363
-0.0590526
-0.068913
-0.0781815
-0.084238
-0.0848753
-0.0794815
-0.0689187
-0.0544818
-0.0369923
-0.0166952
0.006049
0.0298964
0.0522497
0.0697976
0.0794878
0.0794886
0.0698
0.0522534
0.0299009
0.00605364
-0.016691
-0.0369892
-0.0544804
-0.0689191
-0.0794838
-0.0848792
-0.0842434
-0.0781879
-0.0689203
-0.0590604
-0.0500442
-0.0414938
-0.0320036
-0.0205754
-0.00761049
0.00525877
0.0163652
0.0251243
0.0319641
0.0373023
0.0409494
0.0424424
0.041496
0.0381512
0.032899
0.0266885
0.0205726
0.0153134
0.0112976
0.0086236
0.00702731
0.00586732
0.00455387
0.00304438
0.00173786
0.000937492
0.000628826
0.000646408
0.000774794
0.000783382
0.000597173
0.000375213
0.00029026
0.000273721
0.000127121
0.000171954
0.000397438
0.000458928
0.000531389
0.000677812
0.000775192
0.00077768
0.000860371
0.00122883
0.00193366
0.00296484
0.00430938
0.00582267
0.00733054
0.0089835
0.011252
0.0144834
0.0186702
0.0236682
0.0293099
0.0351496
0.0403137
0.0437798
0.0447979
0.0430632
0.0387625
0.0324715
0.0245992
0.0149047
0.00304281
-0.0103562
-0.0235736
-0.0349731
-0.0442675
-0.0526667
-0.0617677
-0.0719964
-0.0817927
-0.0883409
-0.0893241
-0.0841806
-0.0739004
-0.059831
-0.0426847
-0.0224839
0.000607327
0.0252726
0.0487189
0.0672906
0.0775943
0.0775947
0.0672917
0.0487206
0.0252747
0.000609413
-0.0224821
-0.0426836
-0.0598308
-0.0739014
-0.0841827
-0.0893272
-0.0883448
-0.0817974
-0.0720019
-0.0617739
-0.0526734
-0.0442743
-0.0349794
-0.0235787
-0.0103596
0.00304141
0.0149053
0.0246016
0.0324754
0.0387675
0.0430687
0.0448034
0.043785
0.0403184
0.0351534
0.0293128
0.02367
0.0186711
0.0144836
0.0112517
0.00898286
0.00732973
0.00582179
0.00430847
0.00296394
0.00193283
0.00122808
0.000859736
0.000777166
0.000774796
0.000677532
0.000531225
0.000458865
0.000397437
0.000171963
0.000145603
0.000322207
0.000340147
0.000372431
0.000497441
0.000646961
0.000860371
0.00135639
0.00225729
0.00341474
0.00463695
0.00589956
0.00725267
0.00878791
0.0107836
0.013582
0.0172126
0.0213736
0.0258624
0.0307413
0.0359231
0.0407689
0.0442145
0.0452445
0.0432674
0.0383555
0.0311948
0.022438
0.01208
-8.76455e-05
-0.0133998
-0.0261717
-0.0368646
-0.0453619
-0.0530833
-0.0617897
-0.0719425
-0.0818931
-0.0887177
-0.0900965
-0.0855889
-0.0763147
-0.0636188
-0.0480315
-0.0292786
-0.00723971
0.0169079
0.0402959
0.0590374
0.0694957
0.0694955
0.059037
0.0402953
0.0169071
-0.0072406
-0.0292796
-0.0480326
-0.0636201
-0.0763162
-0.0855907
-0.0900986
-0.0887201
-0.0818958
-0.0719458
-0.0617938
-0.0530882
-0.0453673
-0.0368702
-0.0261767
-0.0134039
-9.03814e-05
0.0120788
0.0224385
0.0311968
0.0383589
0.0432719
0.0452496
0.0442198
0.040774
0.0359277
0.030745
0.0258652
0.0213754
0.0172136
0.0135823
0.0107833
0.00878726
0.00725183
0.00589865
0.00463605
0.00341389
0.00225652
0.00135568
0.000859737
0.000646409
0.000497002
0.000372131
0.000339983
0.000322142
0.00014559
7.38042e-05
0.000123221
5.56884e-05
6.61346e-05
0.00026583
0.000629522
0.00122883
0.00225729
0.00371739
0.00528004
0.00661532
0.0077133
0.00881417
0.0102521
0.0124101
0.0154984
0.019247
0.0230819
0.0267457
0.0305211
0.0346928
0.0389069
0.0421244
0.0431112
0.0410035
0.0357373
0.0280577
0.0188119
0.00822342
-0.00375741
-0.016436
-0.0282155
-0.0377187
-0.0450215
-0.051727
-0.0597119
-0.0694482
-0.0792289
-0.0861108
-0.087876
-0.0842753
-0.0765727
-0.0660824
-0.0531015
-0.0369963
-0.0172858
0.00509197
0.0273186
0.0454046
0.0555757
0.055575
0.0454028
0.0273158
0.00508853
-0.0172895
-0.0369999
-0.0531047
-0.0660851
-0.0765748
-0.0842769
-0.0878772
-0.0861117
-0.0792297
-0.0694494
-0.0597139
-0.0517298
-0.0450253
-0.037723
-0.0282201
-0.0164404
-0.00376113
0.0082207
0.0188105
0.0280578
0.0357389
0.0410065
0.0431153
0.0421292
0.038912
0.0346977
0.0305255
0.0267493
0.0230847
0.0192489
0.0154994
0.0124104
0.0102517
0.00881349
0.00771245
0.00661444
0.00527919
0.00371659
0.00225652
0.00122808
0.000628826
0.000265239
6.56922e-05
5.54035e-05
0.000123071
7.37593e-05
3.21169e-05
1.25745e-05
-8.57905e-05
-4.01756e-05
0.000300246
0.000938285
0.00193366
0.00341474
0.00528004
0.00709947
0.00848829
0.0094683
0.010408
0.0117848
0.0140095
0.0171448
0.0206681
0.0237963
0.0262451
0.028508
0.0312422
0.0344377
0.0371854
0.038132
0.0361823
0.0310949
0.0235565
0.0144734
0.00421428
-0.00712694
-0.0188169
-0.029348
-0.0375057
-0.0435344
-0.0491634
-0.0563211
-0.0654546
-0.0748297
-0.0815716
-0.083659
-0.0810921
-0.0753032
-0.0675803
-0.0579721
-0.0454512
-0.0291262
-0.00961569
0.0104388
0.0270958
0.0365633
0.0365623
0.027093
0.0104345
-0.00962102
-0.029132
-0.0454568
-0.057977
-0.0675842
-0.0753059
-0.0810937
-0.0836596
-0.0815715
-0.0748291
-0.0654541
-0.0563211
-0.0491643
-0.0435363
-0.0375086
-0.0293517
-0.018821
-0.00713107
0.00421047
0.0144703
0.0235546
0.0310945
0.0361836
0.0381347
0.0371892
0.0344422
0.0312469
0.0285127
0.0262494
0.0237999
0.020671
0.0171467
0.0140104
0.011785
0.0104076
0.00946766
0.00848749
0.00709861
0.00527919
0.00341389
0.00193283
0.000937491
0.000299556
-4.07188e-05
-8.61756e-05
1.23433e-05
3.20401e-05
9.79619e-05
0.00020761
0.000229504
0.000396361
0.000892368
0.00173869
0.00296484
0.00463695
0.00661532
0.00848829
0.00991178
0.0109325
0.011935
0.0133887
0.0156244
0.0185462
0.0214552
0.0234609
0.0243074
0.024689
0.0256193
0.0274778
0.0296011
0.0306409
0.0293279
0.0251825
0.018666
0.0105424
0.00118392
-0.00921453
-0.0198511
-0.0292483
-0.0362886
-0.0413116
-0.0460936
-0.0525421
-0.0610493
-0.0698898
-0.0763411
-0.0786525
-0.0771104
-0.0733354
-0.0686163
-0.0627788
-0.0544128
-0.0422081
-0.0264108
-0.00936642
0.00519127
0.0135864
0.0135854
0.00518817
-0.00937127
-0.0264169
-0.0422149
-0.0544196
-0.0627848
-0.0686211
-0.0733388
-0.0771123
-0.078653
-0.0763405
-0.0698884
-0.0610476
-0.0525406
-0.0460928
-0.0413118
-0.0362899
-0.0292506
-0.0198543
-0.00921848
0.0011796
0.0105382
0.0186625
0.0251803
0.0293273
0.0306419
0.0296034
0.0274812
0.0256235
0.0246936
0.024312
0.0234653
0.0214589
0.0185491
0.0156263
0.0133897
0.0119352
0.0109323
0.00991118
0.00848749
0.00661444
0.00463605
0.00296394
0.00173786
0.000891644
0.000395776
0.000229059
0.000207318
9.78581e-05
0.000276975
0.000727746
0.00103732
0.00142137
0.00208081
0.00304522
0.00430938
0.00589956
0.0077133
0.0094683
0.0109325
0.0121421
0.0133642
0.014909
0.016943
0.0192397
0.0210454
0.021503
0.0204592
0.0187907
0.0178101
0.0182792
0.0198564
0.0213088
0.0212486
0.0188973
0.0143154
0.00791079
-9.73318e-05
-0.00946069
-0.0192592
-0.0279445
-0.034384
-0.0389092
-0.0432552
-0.0492476
-0.0572112
-0.0654749
-0.0715405
-0.0739763
-0.0733621
-0.0715052
-0.0697208
-0.0676653
-0.0636051
-0.055846
-0.0442438
-0.0307568
-0.0187726
-0.0117228
-0.0117238
-0.0187755
-0.0307614
-0.0442498
-0.0558528
-0.063612
-0.0676717
-0.0697261
-0.0715091
-0.0733644
-0.0739771
-0.07154
-0.0654732
-0.0572089
-0.0492451
-0.0432531
-0.0389078
-0.0343835
-0.0279453
-0.0192613
-0.009464
-0.000101634
0.007906
0.0143108
0.0188935
0.0212461
0.0213078
0.019857
0.0182813
0.0178133
0.0187948
0.0204639
0.0215077
0.0210498
0.0192435
0.0169459
0.0149109
0.0133653
0.0121424
0.0109323
0.00946766
0.00771245
0.00589865
0.00430847
0.00304438
0.00208009
0.00142079
0.00103685
0.000727413
0.000276851
0.000465303
0.00128657
0.00193317
0.0025919
0.00345963
0.0045547
0.00582267
0.00725267
0.00881417
0.010408
0.011935
0.0133642
0.0147316
0.0160878
0.0174184
0.0184563
0.0185614
0.0170797
0.014046
0.0104817
0.00788681
0.00731634
0.0087446
0.0111102
0.0129479
0.0131381
0.0112077
0.00704175
0.000584714
-0.00788901
-0.0172788
-0.0258529
-0.0323413
-0.0369592
-0.0413184
-0.0471227
-0.0546413
-0.0623096
-0.0679126
-0.0703643
-0.0705225
-0.0703543
-0.0712095
-0.0726362
-0.0726655
-0.0692857
-0.0619719
-0.0522453
-0.0430567
-0.0374951
-0.0374959
-0.0430589
-0.0522491
-0.0619769
-0.0692916
-0.0726718
-0.0726422
-0.0712147
-0.0703584
-0.0705251
-0.0703656
-0.0679126
-0.0623083
-0.054639
-0.0471199
-0.0413154
-0.0369565
-0.0323395
-0.0258522
-0.0172796
-0.00789141
0.000580854
0.00703688
0.0112025
0.0131332
0.012944
0.0111076
0.00874346
0.00731675
0.00788873
0.0104849
0.0140502
0.0170845
0.0185662
0.0184608
0.0174222
0.0160907
0.0147336
0.0133653
0.0119352
0.0104076
0.00881349
0.00725183
0.00582179
0.00455388
0.00345893
0.00259131
0.00193267
0.00128621
0.000465162
0.000527154
0.00150712
0.00237908
0.00331341
0.00448371
0.00586814
0.00733054
0.00878791
0.0102521
0.0117848
0.0133887
0.014909
0.0160878
0.0166958
0.0165947
0.015615
0.0134171
0.00972316
0.0048391
-0.000119339
-0.00361776
-0.00447134
-0.00248515
0.00143305
0.00575166
0.00899234
0.0100834
0.00830099
0.00325961
-0.00473192
-0.0143239
-0.0235016
-0.0307495
-0.0360651
-0.0408645
-0.0467064
-0.0538322
-0.0608396
-0.0658464
-0.0681323
-0.0688159
-0.0699907
-0.0730365
-0.07745
-0.0811184
-0.0817843
-0.0785647
-0.072525
-0.0661353
-0.0620857
-0.0620863
-0.066137
-0.0725278
-0.0785685
-0.081789
-0.0811234
-0.077455
-0.073041
-0.0699944
-0.0688187
-0.0681341
-0.0658471
-0.0608391
-0.0538304
-0.0467036
-0.0408612
-0.0360616
-0.0307466
-0.0234997
-0.0143235
-0.00473324
0.0032566
0.00829661
0.0100782
0.008987
0.00574674
0.00142902
-0.00248794
-0.00447261
-0.00361738
-0.000117376
0.00484239
0.00972742
0.0134219
0.0156198
0.016599
0.0166995
0.0160907
0.0149109
0.0133897
0.011785
0.0102517
0.00878726
0.00732973
0.00586732
0.00448298
0.00331277
0.00237853
0.00150671
0.000526996
0.0004388
0.00132677
0.00229565
0.00351706
0.00512335
0.0070281
0.0089835
0.0107836
0.0124101
0.0140095
0.0156244
0.016943
0.0174184
0.0165947
0.0143131
0.0106419
0.0056968
-0.000287106
-0.00666673
-0.0122816
-0.0157177
-0.0158514
-0.0124193
-0.00625439
0.00102282
0.00757199
0.0117147
0.0121087
0.00804447
-9.62964e-05
-0.0106492
-0.0212379
-0.0300133
-0.036663
-0.0423356
-0.0484246
-0.0551759
-0.0614021
-0.0655968
-0.0674243
-0.0682553
-0.0702894
-0.0749399
-0.0817052
-0.0884123
-0.0926238
-0.0931225
-0.0905151
-0.086776
-0.0841737
-0.084174
-0.086777
-0.0905168
-0.093125
-0.0926269
-0.0884157
-0.0817087
-0.0749433
-0.0702925
-0.068258
-0.0674264
-0.0655982
-0.0614024
-0.0551749
-0.0484224
-0.0423325
-0.0366594
-0.0300099
-0.0212352
-0.0106478
-9.64229e-05
0.00804266
0.0121054
0.0117102
0.0075668
0.00101745
-0.00625943
-0.0124235
-0.0158543
-0.015719
-0.0122812
-0.00666473
-0.000283821
0.00570097
0.0106465
0.0143178
0.016599
0.0174222
0.0169459
0.0156263
0.0140104
0.0124104
0.0107833
0.00898286
0.00702731
0.00512258
0.00351636
0.00229504
0.00132633
0.00043863
0.000341709
0.00114426
0.00226928
0.00388092
0.00604985
0.00862423
0.011252
0.013582
0.0154984
0.0171448
0.0185462
0.0192397
0.0184563
0.015615
0.0106419
0.00393139
-0.00387212
-0.011959
-0.0193181
-0.0247814
-0.0271736
-0.0255977
-0.0198763
-0.0108683
-0.000321813
0.00956735
0.0165469
0.0186978
0.0150275
0.00603336
-0.00626026
-0.0190647
-0.0301305
-0.0387519
-0.045739
-0.0522971
-0.0587067
-0.0640437
-0.0672084
-0.0682503
-0.0687738
-0.0710698
-0.0766013
-0.0849279
-0.093901
-0.100977
-0.104643
-0.105058
-0.103696
-0.102405
-0.102405
-0.103697
-0.105058
-0.104644
-0.100978
-0.0939027
-0.0849297
-0.0766033
-0.0710719
-0.0687761
-0.0682526
-0.0672103
-0.0640449
-0.0587068
-0.0522959
-0.0457367
-0.0387488
-0.0301271
-0.0190616
-0.00625793
0.00603445
0.0150271
0.0186958
0.0165435
0.0095628
-0.000327145
-0.0108739
-0.0198816
-0.025602
-0.0271765
-0.0247826
-0.0193176
-0.011957
-0.0038689
0.00393549
0.0106465
0.0156198
0.0184608
0.0192435
0.0185491
0.0171467
0.0154994
0.0135823
0.0112517
0.0086236
0.0060491
0.00388021
0.00226867
0.00114382
0.000341546
0.000447806
0.00154938
0.00314459
0.00533896
0.00811841
0.0112979
0.0144834
0.0172126
0.019247
0.0206681
0.0214552
0.0210454
0.0185614
0.0134171
0.0056968
-0.00387212
-0.0141524
-0.0237952
-0.0314413
-0.0359454
-0.0364432
-0.0323781
-0.0237783
-0.0116117
0.00221922
0.0151965
0.0245706
0.0279306
0.0240598
0.0135951
-0.00107157
-0.0167266
-0.0306816
-0.0417732
-0.0504133
-0.0576037
-0.0636968
-0.0680838
-0.070088
-0.0701087
-0.069924
-0.0718771
-0.0774927
-0.0864572
-0.0967468
-0.105812
-0.111919
-0.114804
-0.115448
-0.115277
-0.115277
-0.115448
-0.114804
-0.111919
-0.105812
-0.096747
-0.0864574
-0.0774932
-0.071878
-0.0699255
-0.0701107
-0.0700901
-0.0680856
-0.0636979
-0.0576037
-0.0504121
-0.041771
-0.0306786
-0.0167234
-0.00106865
0.0135973
0.0240608
0.0279301
0.0245686
0.0151929
0.00221435
-0.0116174
-0.0237842
-0.0323835
-0.0364474
-0.0359481
-0.0314424
-0.0237947
-0.0141504
-0.00386889
0.00570097
0.0134219
0.0185662
0.0210498
0.0214589
0.020671
0.0192489
0.0172136
0.0144836
0.0112976
0.00811789
0.00533839
0.00314409
0.00154903
0.000447678
0.000900338
0.00293459
0.00546549
0.00845994
0.0117972
0.0153132
0.0186702
0.0213736
0.0230819
0.0237963
0.0234609
0.021503
0.0170797
0.00972316
-0.000287106
-0.011959
-0.0237952
-0.0340348
-0.0410486
-0.0437525
-0.0416359
-0.0345542
-0.0228246
-0.00758119
0.00912196
0.024523
0.0355138
0.0393352
0.0346321
0.0221908
0.00473578
-0.0141263
-0.0312676
-0.0450337
-0.0554022
-0.0631768
-0.0688395
-0.0721657
-0.0729182
-0.0717857
-0.0706185
-0.071733
-0.0767036
-0.0854048
-0.0960469
-0.106196
-0.113986
-0.118777
-0.121055
-0.121819
-0.121819
-0.121055
-0.118776
-0.113985
-0.106195
-0.0960459
-0.085404
-0.076703
-0.0717328
-0.070619
-0.071787
-0.0729201
-0.0721677
-0.0688413
-0.0631778
-0.0554022
-0.0450326
-0.0312654
-0.0141234
0.00473892
0.0221936
0.0346342
0.039336
0.035513
0.0245206
0.0091179
-0.00758648
-0.0228305
-0.03456
-0.041641
-0.0437566
-0.0410512
-0.0340359
-0.0237947
-0.011957
-0.000283816
0.00972742
0.0170845
0.0215077
0.0234653
0.0238
0.0230847
0.0213754
0.0186711
0.0153134
0.0117971
0.00845971
0.00546524
0.00293441
0.00090027
0.00170219
0.00530119
0.00921709
0.0132039
0.0170196
0.0205715
0.0236682
0.0258624
0.0267457
0.0262451
0.0243074
0.0204592
0.014046
0.0048391
-0.00666673
-0.0193181
-0.0314413
-0.0410486
-0.0463629
-0.0464127
-0.0410676
-0.0306448
-0.0158203
0.00205653
0.0207997
0.0375206
0.0489535
0.0522051
0.0459159
0.0310365
0.0105606
-0.0115891
-0.0318868
-0.0481881
-0.0600268
-0.0680315
-0.072887
-0.0748391
-0.0741264
-0.0716807
-0.0693237
-0.0692516
-0.0730552
-0.0808377
-0.0911315
-0.101713
-0.110658
-0.116977
-0.120658
-0.122249
-0.122248
-0.120657
-0.116976
-0.110657
-0.101711
-0.09113
-0.0808361
-0.0730538
-0.0692506
-0.0693233
-0.0716811
-0.0741276
-0.0748409
-0.0728889
-0.0680331
-0.0600277
-0.048188
-0.0318856
-0.0115869
0.0105635
0.0310397
0.0459187
0.0522069
0.0489539
0.0375193
0.0207968
0.0020521
-0.0158257
-0.0306505
-0.0410732
-0.0464177
-0.0463668
-0.0410512
-0.0314424
-0.0193176
-0.00666473
0.0048424
0.0140502
0.0204639
0.024312
0.0262494
0.0267493
0.0258652
0.02367
0.0205726
0.0170202
0.0132041
0.00921719
0.00530123
0.00170219
0.00271932
0.00827045
0.0138464
0.0189551
0.0232334
0.0266865
0.0293099
0.0307413
0.0305211
0.028508
0.024689
0.0187907
0.0104817
-0.000119339
-0.0122816
-0.0247814
-0.0359454
-0.0437525
-0.0464127
-0.0431142
-0.0341117
-0.0202121
-0.00251536
0.0173554
0.0370897
0.053792
0.0642685
0.0657545
0.0570668
0.0393567
0.0158076
-0.00945539
-0.0325937
-0.0510103
-0.0638068
-0.07146
-0.0749174
-0.0749728
-0.0723904
-0.0683408
-0.0645652
-0.0630784
-0.0654555
-0.0720403
-0.0817207
-0.0925094
-0.102434
-0.110161
-0.115175
-0.117564
-0.117563
-0.115174
-0.11016
-0.102432
-0.0925078
-0.081719
-0.0720385
-0.0654536
-0.0630768
-0.0645641
-0.0683404
-0.0723908
-0.0749738
-0.0749189
-0.0714616
-0.063808
-0.0510109
-0.0325934
-0.00945402
0.0158099
0.0393595
0.0570697
0.0657568
0.0642698
0.0537919
0.0370879
0.0173521
-0.00251978
-0.0202173
-0.0341172
-0.0431196
-0.0464177
-0.0437566
-0.0359481
-0.0247826
-0.0122812
-0.000117374
0.0104849
0.0187948
0.0246936
0.0285127
0.0305255
0.030745
0.0293128
0.0266885
0.0232347
0.0189559
0.0138469
0.00827071
0.0027194
0.00373118
0.0112186
0.018437
0.0246716
0.029458
0.032896
0.0351496
0.0359231
0.0346928
0.0312422
0.0256193
0.0178101
0.00788681
-0.00361776
-0.0157177
-0.0271736
-0.0364432
-0.0416359
-0.0410676
-0.0341117
-0.0213734
-0.00413138
0.0160542
0.0372268
0.0569355
0.0723652
0.0806007
0.0792667
0.0675517
0.0468536
0.0204557
-0.00746201
-0.032877
-0.052817
-0.065981
-0.0727017
-0.0742021
-0.0718504
-0.0669644
-0.0609719
-0.0555423
-0.0525066
-0.0534168
-0.0588434
-0.0679995
-0.0790831
-0.0900274
-0.0991458
-0.105449
-0.108603
-0.108603
-0.105449
-0.099145
-0.0900263
-0.0790817
-0.0679977
-0.0588415
-0.0534148
-0.0525048
-0.0555409
-0.060971
-0.0669641
-0.0718506
-0.0742029
-0.0727028
-0.0659822
-0.0528181
-0.0328775
-0.0074616
0.0204571
0.0468558
0.0675543
0.0792693
0.0806027
0.0723661
0.056935
0.037225
0.0160511
-0.00413561
-0.0213784
-0.0341172
-0.0410731
-0.041641
-0.0364474
-0.0271765
-0.015719
-0.00361738
0.00788872
0.0178133
0.0256235
0.0312469
0.0346977
0.0359277
0.0351534
0.032899
0.0294602
0.024673
0.0184379
0.0112191
0.00373135
0.00451976
0.013523
0.022052
0.0292373
0.0345463
0.0381474
0.0403137
0.0407689
0.0389069
0.0344377
0.0274778
0.0182792
0.00731634
-0.00447134
-0.0158514
-0.0255977
-0.0323781
-0.0345542
-0.0306448
-0.0202121
-0.00413138
0.0159324
0.0379885
0.0597256
0.0785346
0.0917317
0.0968305
0.0920513
0.0771126
0.0536835
0.0250364
-0.00476969
-0.0316942
-0.0525018
-0.065533
-0.0709626
-0.0702439
-0.065271
-0.0578824
-0.0497624
-0.0425433
-0.0379193
-0.0374409
-0.0418808
-0.0507089
-0.0622195
-0.0741857
-0.0845711
-0.0919888
-0.0957855
-0.0957854
-0.0919886
-0.0845705
-0.0741847
-0.062218
-0.0507071
-0.0418788
-0.0374388
-0.0379175
-0.0425418
-0.0497613
-0.0578817
-0.0652706
-0.070244
-0.0709632
-0.0655341
-0.0525031
-0.0316953
-0.00477013
0.025037
0.0536851
0.0771149
0.0920539
0.0968329
0.0917335
0.0785354
0.0597252
0.0379868
0.0159294
-0.00413561
-0.0202173
-0.0306505
-0.03456
-0.0323835
-0.025602
-0.0158543
-0.00447261
0.00731675
0.0182812
0.0274812
0.0344422
0.038912
0.040774
0.0403184
0.0381513
0.0345494
0.0292395
0.0220534
0.0135238
0.00452001
0.00496102
0.0148222
0.0241232
0.0319198
0.0376427
0.0414912
0.0437798
0.0442145
0.0421244
0.0371854
0.0296011
0.0198564
0.0087446
-0.00248515
-0.0124193
-0.0198763
-0.0237783
-0.0228246
-0.0158203
-0.00251536
0.0160542
0.0379885
0.0609822
0.0824246
0.0995676
0.109894
0.111433
0.103123
0.0852916
0.0598529
0.0299276
-0.000739541
-0.0282687
-0.0492863
-0.0618234
-0.0658682
-0.0630213
-0.0555972
-0.0458617
-0.0357094
-0.026756
-0.0206158
-0.0188722
-0.0224783
-0.0310936
-0.0430322
-0.0558639
-0.0672301
-0.0754506
-0.0796875
-0.0796875
-0.0754504
-0.0672295
-0.0558628
-0.0430306
-0.0310916
-0.0224762
-0.0188702
-0.0206141
-0.0267547
-0.0357084
-0.0458608
-0.0555965
-0.063021
-0.0658685
-0.0618244
-0.0492877
-0.0282701
-0.000740451
0.0299276
0.059854
0.0852935
0.103125
0.111436
0.109896
0.0995695
0.0824255
0.0609819
0.0379868
0.0160511
-0.00251979
-0.0158257
-0.0228305
-0.0237842
-0.0198816
-0.0124235
-0.00248794
0.00874345
0.019857
0.0296034
0.0371892
0.0421292
0.0442198
0.043785
0.041496
0.0376466
0.0319227
0.0241252
0.0148234
0.0049614
0.00505778
0.0151141
0.0246115
0.0325923
0.0384702
0.0424369
0.0447979
0.0452445
0.0431112
0.038132
0.0306409
0.0213088
0.0111102
0.00143305
-0.00625439
-0.0108683
-0.0116117
-0.00758119
0.00205653
0.0173554
0.0372268
0.0597256
0.0824246
0.102554
0.117305
0.124367
0.122319
0.110851
0.0909022
0.064543
0.0345814
0.00426125
-0.0228621
-0.0433898
-0.0550909
-0.0577419
-0.0530074
-0.0435087
-0.0318239
-0.0199792
-0.00955682
-0.00211819
0.000702092
-0.00220829
-0.0106538
-0.0229313
-0.0364031
-0.0484341
-0.0571462
-0.0616299
-0.0616297
-0.0571457
-0.0484332
-0.0364018
-0.0229296
-0.0106518
-0.00220632
0.000703884
-0.00211673
-0.00955572
-0.0199784
-0.0318232
-0.043508
-0.053007
-0.057742
-0.0550916
-0.0433909
-0.0228633
0.00426032
0.0345812
0.0645435
0.0909034
0.110853
0.122321
0.124369
0.117308
0.102556
0.0824255
0.0597252
0.037225
0.0173521
0.00205208
-0.00758649
-0.0116174
-0.0108739
-0.00625944
0.00142901
0.0111076
0.0213078
0.0306419
0.0381346
0.0431153
0.0452496
0.0448034
0.0424424
0.038475
0.0325961
0.0246142
0.0151157
0.00505831
0.00488669
0.0146088
0.0238029
0.0315292
0.0371908
0.0409436
0.0430632
0.0432674
0.0410035
0.0361823
0.0293279
0.0212486
0.0129479
0.00575166
0.00102282
-0.000321813
0.00221922
0.00912196
0.0207997
0.0370897
0.0569355
0.0785346
0.0995676
0.117305
0.129002
0.132594
0.127206
0.113243
0.0921911
0.0661675
0.0375181
0.00883538
-0.0167758
-0.035987
-0.0463602
-0.0474612
-0.0409681
-0.0297242
-0.0165242
-0.00344331
0.0080161
0.0163619
0.0199245
0.0174643
0.00906475
-0.00354309
-0.0175344
-0.0300472
-0.0390741
-0.0436976
-0.0436973
-0.0390733
-0.030046
-0.0175329
-0.00354155
0.00906628
0.0174657
0.0199258
0.016363
0.00801703
-0.00344251
-0.0165234
-0.0297235
-0.0409675
-0.047461
-0.0463604
-0.0359876
-0.0167765
0.00883477
0.0375178
0.0661675
0.0921914
0.113244
0.127207
0.132596
0.129004
0.117308
0.0995694
0.0785354
0.056935
0.0370879
0.0207967
0.00911789
0.00221433
-0.000327157
0.00101744
0.00574674
0.012944
0.0212461
0.0293272
0.0361836
0.0410065
0.0432719
0.0430687
0.0409494
0.0371963
0.0315338
0.0238063
0.0146109
0.00488741
0.00452584
0.0135278
0.0220236
0.0291026
0.0341587
0.0372965
0.0387625
0.0383555
0.0357373
0.0310949
0.0251825
0.0188973
0.0131381
0.00899234
0.00757199
0.00956735
0.0151965
0.024523
0.0375206
0.053792
0.0723652
0.0917317
0.109894
0.124367
0.132594
0.132787
0.124551
0.108916
0.0878129
0.0633131
0.0372117
0.0113723
-0.0116276
-0.0286147
-0.0370218
-0.0362432
-0.0279528
-0.0151563
-0.000789592
0.0130893
0.0251043
0.0338622
0.0376893
0.0352621
0.0265977
0.0134801
-0.00108933
-0.0140648
-0.0233627
-0.0280959
-0.0280956
-0.0233617
-0.0140636
-0.00108804
0.0134813
0.0265986
0.0352628
0.03769
0.033863
0.0251051
0.0130901
-0.000788803
-0.0151555
-0.0279521
-0.0362427
-0.0370215
-0.0286146
-0.0116278
0.011372
0.0372114
0.0633127
0.0878124
0.108916
0.124551
0.132787
0.132596
0.124369
0.109896
0.0917335
0.0723661
0.0537918
0.0375193
0.0245206
0.0151929
0.00956279
0.00756679
0.00898699
0.0131332
0.0188935
0.0251803
0.0310945
0.0357389
0.0383589
0.0387674
0.0373023
0.0341645
0.0291078
0.0220277
0.0135304
0.00452673
0.00401517
0.0119921
0.0194767
0.0255962
0.0297412
0.0319589
0.0324715
0.0311948
0.0280577
0.0235565
0.018666
0.0143154
0.0112077
0.0100834
0.0117147
0.0165469
0.0245706
0.0355138
0.0489535
0.0642685
0.0806007
0.0968305
0.111433
0.122319
0.127206
0.124551
0.114318
0.0979976
0.077841
0.0558183
0.033178
0.0110734
-0.00846064
-0.0224799
-0.0283903
-0.0254793
-0.015402
-0.00124904
0.0139905
0.0283332
0.040543
0.0493137
0.0529637
0.0501201
0.0408027
0.0269168
0.0116657
-0.00175437
-0.0112538
-0.0160436
-0.0160433
-0.011253
-0.0017533
0.0116667
0.0269175
0.0408031
0.0501204
0.052964
0.049314
0.0405435
0.0283338
0.0139912
-0.00124826
-0.0154012
-0.0254786
-0.0283897
-0.0224795
-0.00846041
0.0110735
0.0331778
0.0558177
0.07784
0.0979965
0.114318
0.124551
0.127207
0.122321
0.111436
0.0968329
0.0806026
0.0642698
0.0489538
0.035513
0.0245685
0.0165435
0.0117102
0.0100782
0.0112025
0.0143108
0.0186625
0.0235546
0.0280577
0.0311968
0.0324754
0.0319641
0.0297469
0.0256016
0.019481
0.011995
0.00401618
0.00332833
0.00993301
0.0160793
0.0209565
0.0239717
0.0251204
0.0245992
0.022438
0.0188119
0.0144734
0.0105424
0.00791079
0.00704175
0.00830099
0.0121087
0.0186978
0.0279306
0.0393352
0.0522051
0.0657545
0.0792667
0.0920513
0.103123
0.110851
0.113243
0.108916
0.0979976
0.0822093
0.0639654
0.0451081
0.0264253
0.00847339
-0.00720673
-0.0179521
-0.0212485
-0.0163421
-0.00482578
0.0102574
0.0260041
0.0405727
0.0528423
0.061512
0.0648234
0.0613546
0.0512053
0.0365026
0.0207027
0.00711333
-0.00228474
-0.00693532
-0.00693508
-0.0022841
0.00711418
0.0207036
0.0365034