/*--------------------------------*- C++ -*----------------------------------*\
  =========                 |
  \\      /  F ield         | OpenFOAM: The Open Source CFD Toolbox
   \\    /   O peration     | Website:  https://openfoam.org
    \\  /    A nd           | Version:  10
     \\/     M anipulation  |
\*---------------------------------------------------------------------------*/
FoamFile
{
    format      ascii;
    class       volScalarField;
    location    "76";
    object      h;
}
// * * * * * * * * * * * * * * * * * * * * * * * * * * * * * * * * * * * * * //

dimensions      [0 1 0 0 0 0 0];

internalField   nonuniform List<scalar> 
10000
(
-5.39572e-05
-0.000208512
-0.000472989
-0.000816699
-0.00106456
-0.000983553
-0.000434386
0.000512149
0.00153346
0.00217465
0.00207284
0.00117584
-0.000202473
-0.00153864
-0.00243963
-0.00288758
-0.00317779
-0.00365192
-0.00437482
-0.00501619
-0.00513546
-0.00457549
-0.00349044
-0.00210401
-0.000500936
0.00143887
0.00388863
0.0067612
0.0095961
0.0118158
0.0131073
0.0134999
0.013117
0.0120518
0.0104502
0.00850428
0.0064044
0.00440514
0.00281978
0.00184092
0.00137954
0.00119937
0.00119633
0.00138485
0.00165949
0.00176547
0.00152709
0.00103471
0.000545482
0.000261109
0.000260962
0.000545051
0.00103403
0.00152621
0.00176448
0.00165849
0.00138392
0.00119549
0.00119861
0.00137878
0.00184013
0.00281901
0.00440447
0.00640386
0.00850381
0.0104497
0.0120512
0.0131163
0.0134993
0.013107
0.0118157
0.00959615
0.00676133
0.00388884
0.00143924
-0.000500402
-0.00210337
-0.00348981
-0.00457493
-0.00513496
-0.00501569
-0.00437429
-0.00365141
-0.00317737
-0.00288729
-0.00243942
-0.00153844
-0.00020225
0.00117605
0.002073
0.00217475
0.00153352
0.000512187
-0.000434362
-0.000983532
-0.00106453
-0.000816643
-0.000472934
-0.000208482
-5.3949e-05
-0.000208512
-0.00076524
-0.00164482
-0.00274319
-0.00353613
-0.00333724
-0.00173317
0.00107402
0.00412777
0.00606196
0.00578443
0.00314474
-0.000909743
-0.00482433
-0.0074478
-0.00873688
-0.00955981
-0.0109141
-0.0129897
-0.0148274
-0.0151476
-0.0134917
-0.0103029
-0.00622702
-0.00151485
0.00416211
0.0112793
0.0195717
0.0277217
0.0340936
0.0378065
0.0389322
0.0377897
0.0346292
0.0298996
0.0242076
0.0181332
0.0124018
0.00789204
0.00514848
0.00392553
0.00356061
0.00375925
0.00454536
0.00558236
0.00611095
0.00562148
0.00438058
0.00312003
0.00238993
0.0023895
0.00311878
0.00437861
0.00561897
0.00610812
0.0055795
0.00454271
0.00375692
0.00355851
0.00392348
0.00514638
0.00788999
0.0124
0.0181317
0.0242063
0.0298982
0.0346276
0.0377879
0.0389307
0.0378055
0.0340932
0.0277218
0.019572
0.0112799
0.0041631
-0.00151344
-0.00622538
-0.0103013
-0.0134902
-0.0151462
-0.0148261
-0.0129883
-0.0109128
-0.00955875
-0.00873612
-0.00744723
-0.00482378
-0.000909138
0.00314532
0.00578488
0.00606225
0.00412795
0.00107414
-0.00173308
-0.00333716
-0.00353602
-0.00274303
-0.00164467
-0.000765143
-0.000208482
-0.000472989
-0.00164482
-0.00332458
-0.00531305
-0.0067476
-0.00651831
-0.00394455
0.000664882
0.00574685
0.00902587
0.00867624
0.00445975
-0.00203711
-0.00826905
-0.0123914
-0.0143597
-0.0155772
-0.0176315
-0.0208198
-0.0236264
-0.0240365
-0.021328
-0.0161946
-0.00965024
-0.00210717
0.00689707
0.0180388
0.0308728
0.0433862
0.0531255
0.0587892
0.060465
0.0585588
0.0534147
0.0457999
0.0367863
0.0273469
0.0185788
0.0117774
0.00776302
0.00619138
0.00608911
0.00701205
0.00894314
0.0112717
0.0127591
0.0126124
0.0112572
0.00978533
0.00894248
0.00894182
0.0097834
0.0112542
0.0126086
0.0127549
0.0112674
0.00893922
0.00700864
0.00608613
0.00618859
0.00776024
0.0117747
0.0185763
0.0273448
0.0367843
0.0457977
0.0534123
0.0585563
0.0604627
0.0587876
0.0531246
0.0433859
0.030873
0.0180395
0.00689835
-0.0021054
-0.0096482
-0.0161926
-0.0213261
-0.0240347
-0.0236247
-0.020818
-0.0176299
-0.0155758
-0.0143587
-0.0123906
-0.00826829
-0.00203629
0.00446056
0.00867692
0.00902635
0.00574714
0.000665066
-0.0039444
-0.00651814
-0.00674739
-0.0053128
-0.00332435
-0.00164467
-0.000472934
-0.000816699
-0.00274319
-0.00531305
-0.00822145
-0.0102927
-0.0100255
-0.00648098
-5.98313e-05
0.00709892
0.0118369
0.0116111
0.00609529
-0.0025088
-0.0107252
-0.016075
-0.0185215
-0.0199566
-0.022487
-0.0264952
-0.0299917
-0.0303475
-0.0266202
-0.0197182
-0.0109874
-0.0010209
0.0106886
0.0249231
0.0410886
0.0566865
0.0687262
0.0756555
0.0775674
0.0748751
0.0679702
0.0579245
0.0462643
0.0343088
0.0233988
0.0150878
0.0103977
0.00896212
0.0096324
0.0118558
0.015518
0.0197102
0.0227799
0.0237249
0.0230896
0.0221511
0.0216382
0.0216374
0.0221487
0.0230859
0.0237203
0.0227749
0.0197053
0.0155135
0.011852
0.00962917
0.00895929
0.0103951
0.0150852
0.0233964
0.0343065
0.046262
0.0579219
0.0679673
0.074872
0.0775645
0.0756531
0.0687246
0.0566857
0.0410886
0.0249236
0.0106898
-0.00101932
-0.0109855
-0.0197164
-0.0266183
-0.0303458
-0.02999
-0.0264936
-0.0224855
-0.0199554
-0.0185205
-0.0160742
-0.0107244
-0.00250793
0.00609621
0.0116119
0.0118375
0.00709932
-5.96177e-05
-0.0064808
-0.0100253
-0.0102924
-0.00822115
-0.0053128
-0.00274303
-0.000816643
-0.00106456
-0.00353613
-0.0067476
-0.0102927
-0.0127119
-0.012144
-0.00742087
0.00094442
0.0102687
0.016589
0.0167094
0.0102028
-0.000189608
-0.0101461
-0.0165811
-0.0194199
-0.0209727
-0.0238058
-0.0283897
-0.0323534
-0.0325597
-0.0278588
-0.0193389
-0.00868825
0.00324582
0.0169205
0.0331778
0.0513689
0.0687351
0.0819913
0.0894638
0.091263
0.0878062
0.079531
0.0677443
0.0543034
0.0407555
0.0285679
0.019444
0.0145637
0.0136039
0.0153492
0.0191708
0.0248346
0.0311759
0.0362478
0.0389187
0.039777
0.0400769
0.0403119
0.040311
0.0400743
0.0397731
0.038914
0.0362428
0.0311711
0.0248303
0.0191673
0.0153465
0.0136018
0.014562
0.0194424
0.0285662
0.0407535
0.054301
0.0677414
0.0795279
0.0878029
0.0912598
0.0894608
0.0819889
0.0687336
0.0513682
0.033178
0.0169213
0.00324689
-0.00868702
-0.0193375
-0.0278574
-0.0325582
-0.0323519
-0.0283883
-0.0238045
-0.0209716
-0.019419
-0.0165803
-0.0101453
-0.000188716
0.0102038
0.0167104
0.0165898
0.0102692
0.000944657
-0.00742069
-0.0121438
-0.0127116
-0.0102924
-0.00674739
-0.00353601
-0.00106452
-0.000983553
-0.00333724
-0.00651831
-0.0100255
-0.012144
-0.0106969
-0.00434744
0.00623052
0.017846
0.0258493
0.0264937
0.0192377
0.00725222
-0.00440409
-0.0120442
-0.0154569
-0.0172613
-0.0204262
-0.0255331
-0.0299264
-0.0300422
-0.0245111
-0.0145729
-0.00230931
0.0110792
0.0259255
0.0431394
0.0621457
0.080127
0.0936755
0.101079
0.102507
0.0984534
0.0894286
0.0768304
0.0626053
0.0483513
0.0355844
0.0261254
0.0213013
0.0208647
0.0235875
0.0287885
0.0361522
0.0443917
0.0514407
0.0561127
0.0589342
0.060929
0.0621823
0.0621815
0.0609267
0.0589308
0.0561087
0.0514365
0.0443879
0.036149
0.0287862
0.023586
0.020864
0.021301
0.0261251
0.0355836
0.0483498
0.0626029
0.0768275
0.0894253
0.09845
0.102504
0.101076
0.0936725
0.0801247
0.0621443
0.0431391
0.0259258
0.0110798
-0.00230866
-0.0145721
-0.0245101
-0.030041
-0.0299251
-0.0255319
-0.0204252
-0.0172604
-0.015456
-0.0120434
-0.0044032
0.00725318
0.0192387
0.0264947
0.0258501
0.0178465
0.00623081
-0.00434723
-0.0106967
-0.0121438
-0.0100253
-0.00651813
-0.00333716
-0.00098353
-0.000434386
-0.00173317
-0.00394455
-0.00648098
-0.00742087
-0.00434744
0.00417448
0.0172781
0.0313107
0.0410439
0.0422763
0.0343514
0.0207749
0.00723388
-0.0019955
-0.00646365
-0.008975
-0.0128242
-0.0187031
-0.0237407
-0.0240161
-0.0179513
-0.00694745
0.00646564
0.0206842
0.0359089
0.0531519
0.0720028
0.0897161
0.102875
0.109803
0.110804
0.106558
0.0976616
0.0853936
0.0714749
0.0573575
0.0445642
0.0350503
0.0302903
0.030109
0.0332784
0.0390927
0.0472522
0.056554
0.0650218
0.0714769
0.0762696
0.0800279
0.0823407
0.0823401
0.0800263
0.0762671
0.0714741
0.0650192
0.0565519
0.0472508
0.039092
0.0332785
0.0301098
0.0302915
0.0350514
0.0445645
0.0573566
0.0714728
0.0853906
0.0976582
0.106554
0.1108
0.109799
0.102872
0.0897133
0.072001
0.0531511
0.0359089
0.0206845
0.00646603
-0.00694698
-0.0179506
-0.0240151
-0.0237395
-0.018702
-0.0128232
-0.00897421
-0.00646291
-0.00199467
0.00723484
0.0207759
0.0343525
0.0422772
0.0410446
0.0313112
0.0172785
0.00417475
-0.00434722
-0.00742068
-0.0064808
-0.00394439
-0.00173308
-0.00043436
0.000512149
0.00107402
0.000664882
-5.98313e-05
0.00094442
0.00623052
0.0172781
0.0330394
0.0494584
0.0608043
0.062488
0.0537553
0.0383939
0.0226286
0.0112849
0.00511151
0.0012342
-0.00385926
-0.0109242
-0.0169198
-0.0176619
-0.0114299
0.000175225
0.0141619
0.0285587
0.0434833
0.0600639
0.078075
0.0949201
0.107285
0.113621
0.114439
0.110671
0.102961
0.0922509
0.0797581
0.0666269
0.0543513
0.04501
0.040191
0.0397691
0.042535
0.0478176
0.0554701
0.0645953
0.0735014
0.0810597
0.0873522
0.0925267
0.0956942
0.095694
0.092526
0.0873511
0.0810586
0.0735007
0.0645952
0.0554706
0.0478188
0.0425369
0.0397715
0.0401935
0.0450121
0.0543524
0.0666266
0.0797563
0.0922479
0.102957
0.110667
0.114436
0.113617
0.107282
0.0949173
0.078073
0.0600628
0.0434831
0.028559
0.0141624
0.000175802
-0.0114291
-0.0176609
-0.0169187
-0.0109231
-0.00385825
0.001235
0.0051122
0.0112856
0.0226295
0.038395
0.0537563
0.0624888
0.0608048
0.0494588
0.0330399
0.0172785
0.00623082
0.000944668
-5.96072e-05
0.000665073
0.00107414
0.000512188
0.00153346
0.00412777
0.00574685
0.00709892
0.0102687
0.017846
0.0313107
0.0494584
0.0678937
0.080458
0.0822406
0.0724187
0.0550266
0.036732
0.0228312
0.0143918
0.00859385
0.00185917
-0.00657064
-0.013577
-0.014877
-0.00871083
0.00311852
0.017226
0.0313608
0.0455863
0.0610941
0.0778186
0.0934112
0.104831
0.110764
0.111935
0.109469
0.103969
0.0958931
0.0858181
0.0745123
0.0633801
0.0545186
0.0495235
0.0482969
0.0497134
0.0532435
0.0590335
0.066665
0.0748608
0.0825617
0.089535
0.0954609
0.0990902
0.0990903
0.0954612
0.0895354
0.0825624
0.0748621
0.0666668
0.0590359
0.0532464
0.0497167
0.0483004
0.0495268
0.0545211
0.0633815
0.0745123
0.0858167
0.0958903
0.103966
0.109465
0.111931
0.110761
0.104828
0.093409
0.0778169
0.061093
0.045586
0.031361
0.0172266
0.0031193
-0.00870999
-0.0148761
-0.0135762
-0.00656977
0.00185999
0.00859452
0.0143924
0.0228317
0.0367327
0.0550273
0.0724195
0.0822412
0.0804585
0.0678942
0.0494588
0.0313112
0.0178465
0.0102692
0.00709933
0.00574715
0.00412795
0.00153352
0.00217465
0.00606196
0.00902587
0.0118369
0.016589
0.0258493
0.0410439
0.0608043
0.080458
0.0935337
0.094906
0.0837239
0.0642122
0.0433498
0.0267786
0.0158827
0.00804857
-0.000180475
-0.00953444
-0.0170046
-0.0184603
-0.0122129
-0.000191157
0.0139792
0.0278598
0.0414124
0.0557659
0.070984
0.0851217
0.0956338
0.101538
0.103683
0.103231
0.10063
0.095833
0.0888247
0.0800276
0.0706679
0.0626589
0.0574389
0.0549288
0.0542051
0.0550114
0.0578841
0.0629565
0.0694078
0.0762492
0.0829485
0.0888204
0.0924354
0.0924359
0.0888216
0.0829502
0.0762515
0.0694106
0.0629599
0.0578879
0.0550154
0.0542092
0.0549328
0.0574423
0.0626614
0.0706694
0.0800279
0.0888237
0.0958308
0.100627
0.103228
0.103679
0.101535
0.0956317
0.0851202
0.0709828
0.055765
0.0414119
0.0278597
0.0139796
-0.000190484
-0.0122122
-0.0184598
-0.0170043
-0.00953423
-0.000180258
0.00804879
0.0158828
0.0267788
0.04335
0.0642125
0.0837243
0.0949064
0.0935342
0.0804585
0.0608048
0.0410446
0.0258501
0.0165898
0.0118375
0.00902636
0.00606225
0.00217475
0.00207284
0.00578443
0.00867624
0.0116111
0.0167094
0.0264937
0.0422763
0.062488
0.0822406
0.094906
0.0952953
0.0825764
0.0610814
0.0379392
0.0189997
0.00595774
-0.00344033
-0.0123609
-0.0215173
-0.0282476
-0.0288538
-0.0218267
-0.00911463
0.00559042
0.0197256
0.0330521
0.0464953
0.0602442
0.0729328
0.0827029
0.088929
0.0924379
0.0942632
0.0946472
0.0931493
0.0893423
0.0833888
0.0762254
0.069342
0.0638528
0.0597249
0.056382
0.0539542
0.0533821
0.0552997
0.0592903
0.064428
0.0699569
0.0749947
0.0781351
0.0781358
0.0749965
0.0699596
0.0644314
0.0592943
0.0553041
0.0533866
0.0539587
0.0563862
0.0597288
0.063856
0.0693442
0.0762267
0.0833892
0.0893419
0.093148
0.0946452
0.0942608
0.0924354
0.0889269
0.0827013
0.0729318
0.0602436
0.0464946
0.0330514
0.0197249
0.0055901
-0.00911458
-0.0218265
-0.0288538
-0.028248
-0.021518
-0.0123616
-0.00344084
0.00595749
0.0189996
0.0379391
0.0610812
0.0825764
0.0952955
0.0949064
0.0822412
0.0624888
0.0422772
0.0264947
0.0167104
0.0116119
0.00867693
0.00578488
0.00207301
0.00117584
0.00314474
0.00445975
0.00609529
0.0102028
0.0192377
0.0343514
0.0537553
0.0724187
0.0837239
0.0825764
0.068205
0.0449552
0.0199647
-0.000795933
-0.0153057
-0.0253586
-0.0337512
-0.0412317
-0.0456762
-0.0440327
-0.0350732
-0.020712
-0.00460016
0.0105937
0.0243429
0.0372954
0.0498115
0.0612367
0.0704722
0.0771685
0.0819745
0.0857019
0.0884569
0.0896154
0.0885646
0.0852928
0.0803389
0.0745697
0.0686684
0.0627089
0.0565909
0.050885
0.0468593
0.0454978
0.0466692
0.0495027
0.0531395
0.0566991
0.0589878
0.0589886
0.0567013
0.0531428
0.0495068
0.0466738
0.0455026
0.0468639
0.0508893
0.0565947
0.0627121
0.068671
0.0745715
0.0803399
0.0852933
0.0885648
0.0896152
0.0884562
0.0857007
0.081973
0.077167
0.0704709
0.0612359
0.049811
0.0372948
0.0243419
0.0105923
-0.00460144
-0.0207129
-0.0350738
-0.0440333
-0.0456772
-0.0412332
-0.0337527
-0.0253597
-0.0153063
-0.000796173
0.0199644
0.0449548
0.0682047
0.0825763
0.0837243
0.0724195
0.0537563
0.0343525
0.0192388
0.0102038
0.00609622
0.00446057
0.00314533
0.00117605
-0.000202473
-0.000909743
-0.00203711
-0.0025088
-0.000189608
0.00725222
0.0207749
0.0383939
0.0550266
0.0642122
0.0610814
0.0449552
0.0201118
-0.00639404
-0.0284921
-0.0438
-0.0536167
-0.0603828
-0.0649457
-0.0658139
-0.0606827
-0.0486922
-0.0317506
-0.0134446
0.00345911
0.0181304
0.0309577
0.0425318
0.052943
0.0617826
0.0688247
0.0744247
0.0791852
0.0832258
0.0859666
0.0867996
0.0855951
0.0824316
0.077465
0.0709315
0.0630737
0.0543185
0.0456375
0.0384848
0.0340067
0.0322318
0.0323585
0.0335709
0.0351808
0.0363499
0.0363508
0.0351833
0.0335746
0.0323631
0.0322368
0.0340118
0.0384894
0.0456413
0.0543215
0.063076
0.0709332
0.0774661
0.0824323
0.0855956
0.0868002
0.0859672
0.0832263
0.0791853
0.0744242
0.0688237
0.0617815
0.0529421
0.0425311
0.0309569
0.0181291
0.00345726
-0.0134465
-0.0317522
-0.0486934
-0.0606838
-0.0658152
-0.0649474
-0.0603845
-0.053618
-0.0438005
-0.0284922
-0.00639423
0.0201114
0.0449548
0.0610812
0.0642125
0.0550273
0.0383949
0.0207759
0.00725319
-0.000188705
-0.00250791
-0.00203628
-0.000909133
-0.000202246
-0.00153864
-0.00482433
-0.00826905
-0.0107252
-0.0101461
-0.00440409
0.00723388
0.0226286
0.036732
0.0433498
0.0379392
0.0199647
-0.00639404
-0.0342287
-0.0574023
-0.0731703
-0.0823308
-0.0869844
-0.0881021
-0.0848383
-0.0756718
-0.0602053
-0.0404198
-0.0198191
-0.00117889
0.0144661
0.027309
0.0381524
0.0477169
0.05612
0.0631332
0.0688093
0.073636
0.0778879
0.0811725
0.0829757
0.0830671
0.0810758
0.0764994
0.069202
0.059622
0.0486466
0.0375064
0.0276695
0.0202868
0.0154753
0.0125638
0.0109381
0.0102615
0.0101342
0.0101351
0.0102641
0.0109422
0.0125688
0.0154808
0.0202921
0.0276739
0.0375097
0.0486487
0.0596232
0.0692026
0.0764997
0.0810759
0.0830673
0.0829762
0.0811734
0.077889
0.0736368
0.0688096
0.0631328
0.0561189
0.0477157
0.0381513
0.0273078
0.0144647
-0.00118063
-0.0198209
-0.0404214
-0.0602066
-0.0756729
-0.0848395
-0.0881034
-0.0869856
-0.0823315
-0.0731705
-0.0574022
-0.0342288
-0.00639424
0.0199644
0.037939
0.04335
0.0367327
0.0226295
0.00723484
-0.0044032
-0.0101453
-0.0107244
-0.00826828
-0.00482378
-0.00153844
-0.00243963
-0.0074478
-0.0123914
-0.016075
-0.0165811
-0.0120442
-0.0019955
0.0112849
0.0228312
0.0267786
0.0189997
-0.000795933
-0.0284921
-0.0574023
-0.0814574
-0.0976439
-0.10625
-0.108972
-0.106845
-0.0996491
-0.0867009
-0.0681986
-0.0462754
-0.0242506
-0.00468015
0.0114018
0.0240491
0.0341379
0.0427781
0.0504382
0.0568761
0.0619578
0.0661777
0.070022
0.0732913
0.0755396
0.0764141
0.0751612
0.070777
0.0628803
0.0520841
0.0395655
0.0266014
0.0145085
0.00435179
-0.00365558
-0.00994035
-0.0147526
-0.0179598
-0.0194949
-0.0194939
-0.017957
-0.0147483
-0.009935
-0.00364984
0.00435719
0.0145128
0.0266042
0.0395667
0.052084
0.0628796
0.0707761
0.0751603
0.0764135
0.0755396
0.0732918
0.0700229
0.0661787
0.0619584
0.0568761
0.0504375
0.0427771
0.0341368
0.024048
0.0114006
-0.00468128
-0.0242516
-0.0462762
-0.0681993
-0.0867016
-0.0996499
-0.106846
-0.108973
-0.10625
-0.0976436
-0.0814572
-0.0574022
-0.0284922
-0.000796188
0.0189996
0.0267788
0.0228317
0.0112856
-0.00199467
-0.0120434
-0.0165803
-0.0160742
-0.0123906
-0.00744723
-0.00243941
-0.00288758
-0.00873688
-0.0143597
-0.0185215
-0.0194199
-0.0154569
-0.00646365
0.00511151
0.0143918
0.0158827
0.00595774
-0.0153057
-0.0438
-0.0731703
-0.0976439
-0.114113
-0.122355
-0.123537
-0.118654
-0.108106
-0.0921514
-0.0717219
-0.0491132
-0.0272553
-0.00817877
0.0073056
0.0191342
0.0280651
0.0353462
0.0416987
0.0469786
0.0510444
0.0544678
0.0578842
0.0611861
0.0639124
0.0655573
0.0650748
0.0611402
0.0532421
0.0420958
0.0289465
0.014894
0.000979389
-0.0118378
-0.0231771
-0.03308
-0.0412914
-0.0471425
-0.0501192
-0.0501182
-0.0471396
-0.0412869
-0.0330745
-0.0231713
-0.0118325
0.000983445
0.0148962
0.0289468
0.0420945
0.05324
0.0611378
0.0650726
0.0655556
0.0639115
0.0611859
0.0578846
0.0544686
0.0510451
0.0469791
0.0416989
0.0353459
0.0280645
0.0191334
0.00730489
-0.00817909
-0.0272551
-0.0491128
-0.0717216
-0.0921517
-0.108107
-0.118654
-0.123537
-0.122354
-0.114112
-0.0976436
-0.0731706
-0.0438006
-0.0153063
0.00595746
0.0158828
0.0143923
0.00511218
-0.00646292
-0.015456
-0.019419
-0.0185205
-0.0143587
-0.00873612
-0.00288729
-0.00317779
-0.00955981
-0.0155772
-0.0199566
-0.0209727
-0.0172613
-0.008975
0.0012342
0.00859385
0.00804857
-0.00344033
-0.0253586
-0.0536167
-0.0823308
-0.10625
-0.122355
-0.129944
-0.129582
-0.122166
-0.108767
-0.0906907
-0.0696557
-0.0480023
-0.0280084
-0.0109306
0.00276765
0.0128832
0.0199118
0.0250957
0.0294301
0.0330498
0.0359549
0.0387607
0.0420912
0.0457962
0.0493434
0.0520874
0.0527918
0.0499596
0.0430085
0.032641
0.019952
0.0056834
-0.00946898
-0.0246287
-0.0391583
-0.0525922
-0.064085
-0.0724332
-0.0767447
-0.0767438
-0.0724304
-0.0640807
-0.052587
-0.039153
-0.0246241
-0.00946564
0.00568493
0.0199515
0.0326388
0.0430051
0.0499559
0.0527883
0.0520846
0.0493417
0.0457955
0.0420913
0.0387613
0.0359558
0.0330509
0.0294313
0.0250966
0.0199122
0.012883
0.00276741
-0.0109304
-0.0280074
-0.0480008
-0.0696546
-0.0906907
-0.108768
-0.122167
-0.129582
-0.129944
-0.122354
-0.10625
-0.0823316
-0.053618
-0.0253597
-0.00344087
0.00804876
0.00859449
0.00123497
-0.00897422
-0.0172604
-0.0209716
-0.0199553
-0.0155758
-0.00955874
-0.00317737
-0.00365192
-0.0109141
-0.0176315
-0.022487
-0.0238058
-0.0204262
-0.0128242
-0.00385926
0.00185917
-0.000180475
-0.0123609
-0.0337512
-0.0603828
-0.0869844
-0.108972
-0.123537
-0.129582
-0.127106
-0.11695
-0.10092
-0.0814081
-0.0608455
-0.0414058
-0.0244856
-0.0104621
0.000532474
0.00810202
0.0124224
0.0147123
0.0163395
0.0178896
0.01958
0.0219591
0.0254538
0.0297683
0.0343093
0.038366
0.0406293
0.0395435
0.0344676
0.0259727
0.0148412
0.00135432
-0.0141638
-0.0309011
-0.0479177
-0.0641946
-0.0783051
-0.0885993
-0.0939282
-0.0939275
-0.0885971
-0.0783018
-0.0641906
-0.0479138
-0.030898
-0.0141618
0.00135487
0.01484
0.0259699
0.0344636
0.0395391
0.0406252
0.0383629
0.0343074
0.0297676
0.025454
0.0219598
0.0195812
0.0178914
0.0163416
0.0147143
0.0124237
0.00810253
0.000532518
-0.0104617
-0.0244845
-0.0414043
-0.0608444
-0.0814081
-0.100921
-0.116952
-0.127107
-0.129582
-0.123537
-0.108973
-0.0869856
-0.0603845
-0.0337528
-0.0123616
-0.00018029
0.00185996
-0.00385827
-0.0128232
-0.0204252
-0.0238045
-0.0224855
-0.0176299
-0.0109128
-0.0036514
-0.00437482
-0.0129897
-0.0208198
-0.0264952
-0.0283897
-0.0255331
-0.0187031
-0.0109242
-0.00657064
-0.00953444
-0.0215173
-0.0412317
-0.0649457
-0.0881021
-0.106845
-0.118654
-0.122166
-0.11695
-0.103849
-0.0853673
-0.064891
-0.0454132
-0.0287744
-0.0153974
-0.00481648
0.0030789
0.00766518
0.00881112
0.00774148
0.00626074
0.00548704
0.00585609
0.00773827
0.0112368
0.0158762
0.0210635
0.0261329
0.0298339
0.0306559
0.0279073
0.0219561
0.0132125
0.00149318
-0.013241
-0.0302648
-0.0483832
-0.0660981
-0.0815312
-0.0927655
-0.0985622
-0.0985618
-0.0927643
-0.0815295
-0.0660962
-0.0483816
-0.0302638
-0.0132408
0.00149257
0.0132109
0.0219533
0.0279037
0.0306519
0.0298302
0.0261302
0.021062
0.0158761
0.0112376
0.00773954
0.00585772
0.00548914
0.00626326
0.00774397
0.00881294
0.00766597
0.00307892
-0.00481653
-0.0153969
-0.0287736
-0.0454127
-0.0648913
-0.0853685
-0.103851
-0.116952
-0.122167
-0.118654
-0.106846
-0.0881034
-0.0649474
-0.0412332
-0.021518
-0.00953426
-0.0065698
-0.0109231
-0.018702
-0.0255319
-0.0283883
-0.0264935
-0.020818
-0.0129883
-0.00437428
-0.00501619
-0.0148274
-0.0236264
-0.0299917
-0.0323534
-0.0299264
-0.0237407
-0.0169198
-0.013577
-0.0170046
-0.0282476
-0.0456762
-0.0658139
-0.0848383
-0.0996491
-0.108106
-0.108767
-0.10092
-0.0853673
-0.0650858
-0.0441999
-0.0261212
-0.0123472
-0.00241847
0.0048525
0.0097636
0.0115012
0.00967486
0.00549685
0.00114379
-0.00179752
-0.00274234
-0.00157173
0.00146226
0.00573946
0.0107489
0.0159878
0.0204053
0.0226468
0.0220001
0.0186253
0.012613
0.00341611
-0.00932012
-0.0250194
-0.0423767
-0.0596121
-0.0746356
-0.0855078
-0.0910804
-0.0910805
-0.085508
-0.0746359
-0.0596127
-0.0423779
-0.025021
-0.00932186
0.00341438
0.0126112
0.0186233
0.0219978
0.0226443
0.020403
0.0159862
0.0107484
0.00574006
0.00146362
-0.00157008
-0.00274058
-0.00179556
0.00114596
0.00549891
0.0096763
0.0115017
0.00976335
0.00485197
-0.00241885
-0.0123473
-0.0261215
-0.0442005
-0.0650869
-0.0853685
-0.100921
-0.108768
-0.108107
-0.0996499
-0.0848395
-0.0658152
-0.0456772
-0.0282481
-0.0170043
-0.0135762
-0.0169187
-0.0237395
-0.0299251
-0.0323519
-0.02999
-0.0236247
-0.0148261
-0.00501568
-0.00513546
-0.0151476
-0.0240365
-0.0303475
-0.0325597
-0.0300422
-0.0240161
-0.0176619
-0.014877
-0.0184603
-0.0288538
-0.0440327
-0.0606827
-0.0756718
-0.0867009
-0.0921514
-0.0906907
-0.0814081
-0.064891
-0.0441999
-0.0238495
-0.00755738
0.00339436
0.0101269
0.0144175
0.0167777
0.016307
0.0123869
0.00610981
-0.000164866
-0.0045548
-0.00643894
-0.00598953
-0.00378503
-0.000532372
0.00340249
0.00778169
0.0118995
0.0146729
0.0154102
0.0140988
0.0106317
0.00427349
-0.00555325
-0.0184808
-0.0332757
-0.0481346
-0.0610469
-0.0703056
-0.0750041
-0.0750047
-0.0703073
-0.0610495
-0.0481379
-0.0332795
-0.0184847
-0.00555669
0.00427093
0.0106301
0.014098
0.0154097
0.0146725
0.0118991
0.0077815
0.00340279
-0.000531443
-0.00378365
-0.00598802
-0.00643747
-0.00455337
-0.000163531
0.00611083
0.0123874
0.0163069
0.0167772
0.0144169
0.0101263
0.0033937
-0.00755813
-0.0238502
-0.0442005
-0.0648913
-0.0814081
-0.0906907
-0.0921517
-0.0867016
-0.0756729
-0.0606838
-0.0440333
-0.0288538
-0.0184598
-0.0148761
-0.0176609
-0.0240151
-0.030041
-0.0325582
-0.0303458
-0.0240347
-0.0151462
-0.00513495
-0.00457549
-0.0134917
-0.021328
-0.0266202
-0.0278588
-0.0245111
-0.0179513
-0.0114299
-0.00871083
-0.0122129
-0.0218267
-0.0350732
-0.0486922
-0.0602053
-0.0681986
-0.0717219
-0.0696557
-0.0608455
-0.0454132
-0.0261212
-0.00755738
0.00633781
0.0143402
0.0180036
0.0196039
0.0199493
0.0181558
0.0133489
0.00633273
-0.000566617
-0.00534036
-0.00741799
-0.00727171
-0.00577254
-0.00369751
-0.00126894
0.00159431
0.0046468
0.00716694
0.00850679
0.00851246
0.00701166
0.00328243
-0.00334055
-0.0127068
-0.0237901
-0.0349908
-0.0446366
-0.051455
-0.0548663
-0.0548674
-0.0514579
-0.044641
-0.0349962
-0.0237959
-0.0127124
-0.00334514
0.00327938
0.00701034
0.00851262
0.00850788
0.00716836
0.00464809
0.00159529
-0.00126818
-0.00369679
-0.00577176
-0.00727089
-0.00741715
-0.00533958
-0.000566097
0.00633279
0.0133485
0.0181552
0.0199489
0.0196037
0.0180035
0.0143398
0.00633709
-0.00755812
-0.0261214
-0.0454127
-0.0608444
-0.0696546
-0.0717216
-0.0681993
-0.0602066
-0.0486934
-0.0350738
-0.0218265
-0.0122123
-0.00871002
-0.0114292
-0.0179506
-0.0245101
-0.0278574
-0.0266183
-0.0213261
-0.0134902
-0.00457492
-0.00349044
-0.0103029
-0.0161946
-0.0197182
-0.0193389
-0.0145729
-0.00694745
0.000175225
0.00311852
-0.000191157
-0.00911463
-0.020712
-0.0317506
-0.0404198
-0.0462754
-0.0491132
-0.0480023
-0.0414058
-0.0287744
-0.0123472
0.00339436
0.0143402
0.0192203
0.0198605
0.0189847
0.0177794
0.0154431
0.010787
0.00417944
-0.0022342
-0.00640463
-0.00782903
-0.00725415
-0.00582525
-0.00442771
-0.00321023
-0.00179037
8.42427e-05
0.00207046
0.00353949
0.00420304
0.00393789
0.00222558
-0.00153498
-0.00735962
-0.0144806
-0.0216426
-0.0276793
-0.0318542
-0.033906
-0.0339073
-0.031858
-0.027685
-0.0216493
-0.0144876
-0.00736609
-0.00154021
0.00222219
0.00393659
0.00420364
0.0035414
0.00207292
8.65532e-05
-0.00178868
-0.00320931
-0.00442743
-0.0058253
-0.00725418
-0.00782881
-0.00640424
-0.00223397
0.00417921
0.0107864
0.0154425
0.0177794
0.0189853
0.0198612
0.0192206
0.0143398
0.00339371
-0.0123473
-0.0287736
-0.0414043
-0.0480008
-0.0491127
-0.0462762
-0.0404214
-0.0317522
-0.0207129
-0.0091146
-0.000190507
0.00311928
0.000175782
-0.00694699
-0.0145721
-0.0193375
-0.0197164
-0.0161926
-0.0103013
-0.0034898
-0.00210401
-0.00622702
-0.00965024
-0.0109874
-0.00868825
-0.00230931
0.00646564
0.0141619
0.017226
0.0139792
0.00559042
-0.00460016
-0.0134446
-0.0198191
-0.0242506
-0.0272553
-0.0280084
-0.0244856
-0.0153974
-0.00241847
0.0101269
0.0180036
0.0198605
0.0176814
0.0145619
0.0120918
0.0096059
0.00560564
-1.768e-05
-0.00535322
-0.00834082
-0.0085283
-0.00689063
-0.00482166
-0.00335154
-0.00263412
-0.00204939
-0.000897937
0.000782312
0.0023086
0.00324991
0.00361993
0.0032455
0.00171137
-0.0010924
-0.004642
-0.00807649
-0.0108021
-0.0126214
-0.0135069
-0.0135084
-0.0126256
-0.0108083
-0.00808385
-0.00464957
-0.00109935
0.00170572
0.00324169
0.00361821
0.00325019
0.0023104
0.000784932
-0.000895242
-0.00204727
-0.00263298
-0.00335141
-0.00482214
-0.00689112
-0.00852832
-0.00834035
-0.00535266
-1.74466e-05
0.00560551
0.00960581
0.0120922
0.0145629
0.0176826
0.0198612
0.0180035
0.0101263
-0.00241884
-0.0153969
-0.0244845
-0.0280074
-0.0272551
-0.0242516
-0.0198209
-0.0134465
-0.00460145
0.00559008
0.0139796
0.0172266
0.0141624
0.00646602
-0.00230867
-0.00868703
-0.0109855
-0.0096482
-0.00622537
-0.00210336
-0.000500936
-0.00151485
-0.00210717
-0.0010209
0.00324582
0.0110792
0.0206842
0.0285587
0.0313608
0.0278598
0.0197256
0.0105937
0.00345911
-0.00117889
-0.00468015
-0.00817877
-0.0109306
-0.0104621
-0.00481648
0.0048525
0.0144175
0.0196039
0.0189847
0.0145619
0.00962448
0.00609449
0.0035041
0.000165322
-0.00441772
-0.00856972
-0.0102731
-0.00914135
-0.00632723
-0.00340594
-0.00151957
-0.000840415
-0.000559653
0.000376458
0.00211226
0.00382697
0.00494881
0.00568745
0.00627687
0.00653148
0.00628911
0.00586491
0.00572823
0.00589274
0.00605405
0.00610156
0.00610006
0.00604978
0.0058863
0.00572054
0.00585698
0.00628176
0.00652534
0.00627239
0.0056849
0.00494822
0.00382804
0.0021145
0.000379207
-0.000557098
-0.000838675
-0.00151891
-0.00340607
-0.00632749
-0.00914114
-0.0102723
-0.00856865
-0.00441684
0.000165864
0.00350453
0.00609515
0.00962547
0.0145629
0.0189853
0.0196037
0.0144169
0.00485198
-0.00481652
-0.0104617
-0.0109304
-0.00817907
-0.00468126
-0.00118062
0.00345726
0.0105923
0.0197249
0.0278597
0.031361
0.028559
0.0206845
0.0110798
0.00324689
-0.00101932
-0.0021054
-0.00151344
-0.000500389
0.00143887
0.00416211
0.00689707
0.0106886
0.0169205
0.0259255
0.0359089
0.0434833
0.0455863
0.0414124
0.0330521
0.0243429
0.0181304
0.0144661
0.0114018
0.0073056
0.00276765
0.000532474
0.0030789
0.0097636
0.0167777
0.0199493
0.0177794
0.0120918
0.00609449
0.00188406
-0.000757277
-0.00351005
-0.00709874
-0.0101029
-0.0106822
-0.00858962
-0.00509715
-0.00183161
7.45924e-05
0.000500121
0.000436605
0.00120666
0.00303234
0.00492719
0.00623596
0.00741253
0.00907668
0.0112157
0.0135843
0.0162936
0.0194269
0.0224158
0.0244705
0.0253867
0.0253853
0.0244663
0.0224094
0.0194191
0.0162853
0.0135765
0.0112089
0.0090714
0.00740902
0.00623433
0.00492736
0.00303404
0.00120941
0.000439711
0.000502829
7.63899e-05
-0.00183069
-0.00509663
-0.00858899
-0.0106812
-0.0101018
-0.0070977
-0.00350921
-0.000756578
0.00188474
0.00609515
0.0120922
0.0177794
0.0199489
0.0167772
0.00976335
0.00307893
0.000532529
0.00276742
0.00730491
0.0114006
0.0144647
0.0181291
0.0243419
0.0330514
0.0414119
0.045586
0.0434831
0.0359089
0.0259258
0.0169213
0.0106898
0.00689835
0.0041631
0.00143925
0.00388863
0.0112793
0.0180388
0.0249231
0.0331778
0.0431394
0.0531519
0.0600639
0.0610941
0.0557659
0.0464953
0.0372954
0.0309577
0.027309
0.0240491
0.0191342
0.0128832
0.00810202
0.00766518
0.0115012
0.016307
0.0181558
0.0154431
0.0096059
0.0035041
-0.000757277
-0.00310556
-0.00502232
-0.00733513
-0.00898037
-0.00852101
-0.00596283
-0.00260936
5.44127e-05
0.00108642
0.000520072
-0.000466999
-0.000354988
0.00111334
0.00286338
0.00429866
0.0061747
0.00941152
0.0140207
0.0195638
0.0259026
0.0327235
0.0388689
0.0430535
0.044964
0.0449627
0.0430495
0.0388627
0.0327158
0.0258943
0.0195558
0.0140135
0.00940561
0.00617039
0.00429615
0.00286277
0.00111453
-0.000352324
-0.000463463
0.000523677
0.00108941
5.65307e-05
-0.00260796
-0.00596186
-0.00852027
-0.00897979
-0.00733461
-0.00502173
-0.00310486
-0.000756579
0.00350453
0.00960581
0.0154425
0.0181552
0.0163069
0.0115017
0.00766598
0.00810254
0.0128831
0.0191334
0.024048
0.0273079
0.0309569
0.0372948
0.0464946
0.055765
0.061093
0.0600628
0.0531511
0.0431391
0.033178
0.0249236
0.0180395
0.0112799
0.00388885
0.0067612
0.0195717
0.0308728
0.0410886
0.0513689
0.0621457
0.0720028
0.078075
0.0778186
0.070984
0.0602442
0.0498115
0.0425318
0.0381524
0.0341379
0.0280651
0.0199118
0.0124224
0.00881112
0.00967486
0.0123869
0.0133489
0.010787
0.00560564
0.000165322
-0.00351005
-0.00502232
-0.00553258
-0.00594549
-0.00574187
-0.0041529
-0.0015383
0.000899281
0.0020532
0.001362
-0.000910509
-0.00343945
-0.00458887
-0.00405636
-0.00284951
-0.00132661
0.00160306
0.0070176
0.0147535
0.0240424
0.0344525
0.0452928
0.0548584
0.0613847
0.0644175
0.0644164
0.0613813
0.054853
0.0452859
0.0344448
0.0240347
0.0147464
0.00701153
0.00159832
-0.00132974