/*--------------------------------*- C++ -*----------------------------------*\
  =========                 |
  \\      /  F ield         | OpenFOAM: The Open Source CFD Toolbox
   \\    /   O peration     | Website:  https://openfoam.org
    \\  /    A nd           | Version:  10
     \\/     M anipulation  |
\*---------------------------------------------------------------------------*/
FoamFile
{
    format      ascii;
    class       volScalarField;
    location    "42";
    object      h;
}
// * * * * * * * * * * * * * * * * * * * * * * * * * * * * * * * * * * * * * //

dimensions      [0 1 0 0 0 0 0];

internalField   nonuniform List<scalar> 
10000
(
-0.000801048
-0.00241048
-0.00402623
-0.00560808
-0.00700478
-0.00803746
-0.00851279
-0.00819619
-0.00710735
-0.00538029
-0.00337637
-0.00185935
-0.00139524
-0.00227645
-0.00429888
-0.00667766
-0.00857962
-0.00958451
-0.00997117
-0.0105546
-0.0121411
-0.0143471
-0.0159319
-0.0155809
-0.01292
-0.0094078
-0.00709087
-0.00723372
-0.00908859
-0.0107357
-0.0105977
-0.00890809
-0.00712979
-0.00627913
-0.00637616
-0.00666801
-0.00658754
-0.00587236
-0.00491946
-0.00422214
-0.0040886
-0.0041465
-0.00394639
-0.00338582
-0.00285342
-0.00265973
-0.00277055
-0.00281882
-0.00257118
-0.00224355
-0.00224356
-0.00257121
-0.00281885
-0.00277056
-0.00265976
-0.00285348
-0.00338591
-0.00394647
-0.00414657
-0.00408869
-0.00422226
-0.00491959
-0.0058725
-0.0065877
-0.00666817
-0.00637632
-0.00627926
-0.00712993
-0.00890831
-0.010598
-0.010736
-0.00908873
-0.0072337
-0.00709084
-0.00940796
-0.0129204
-0.0155813
-0.0159323
-0.0143472
-0.0121411
-0.0105546
-0.00997135
-0.0095848
-0.00857992
-0.00667784
-0.00429887
-0.00227629
-0.00139504
-0.00185921
-0.00337635
-0.0053804
-0.0071075
-0.00819633
-0.00851291
-0.00803753
-0.00700482
-0.00560808
-0.00402621
-0.00241046
-0.000801034
-0.00241048
-0.00719852
-0.0120032
-0.0167461
-0.0209331
-0.0240935
-0.0255951
-0.0246414
-0.0212765
-0.0159776
-0.00995323
-0.00541707
-0.00392536
-0.00634381
-0.012111
-0.0189039
-0.0243258
-0.0272254
-0.0284405
-0.0302887
-0.0349319
-0.0412978
-0.0458531
-0.0447476
-0.0368904
-0.0265154
-0.0196055
-0.0197947
-0.0249638
-0.0295657
-0.0290789
-0.0241207
-0.0188644
-0.0162625
-0.0164184
-0.0171913
-0.0169285
-0.014887
-0.0121428
-0.0101222
-0.00973209
-0.00993903
-0.00937539
-0.00776699
-0.00627857
-0.00579248
-0.00610243
-0.0061914
-0.00550476
-0.00464734
-0.00464739
-0.00550484
-0.00619145
-0.00610244
-0.00579253
-0.00627873
-0.00776719
-0.00937553
-0.00993915
-0.00973227
-0.0101224
-0.0121431
-0.0148873
-0.0169288
-0.0171917
-0.0164188
-0.0162628
-0.0188648
-0.0241213
-0.0290797
-0.0295665
-0.0249643
-0.0197947
-0.0196056
-0.026516
-0.0368915
-0.044749
-0.0458541
-0.0412982
-0.0349319
-0.0302887
-0.0284409
-0.0272261
-0.0243266
-0.0189044
-0.012111
-0.00634343
-0.00392491
-0.00541677
-0.0099532
-0.0159779
-0.021277
-0.0246419
-0.0255956
-0.0240937
-0.0209332
-0.016746
-0.0120031
-0.00719844
-0.00241046
-0.00402623
-0.0120032
-0.0200153
-0.0278779
-0.0347621
-0.0399182
-0.0422197
-0.0404917
-0.0347973
-0.0258952
-0.0158833
-0.0081986
-0.00535747
-0.00882295
-0.017634
-0.0280939
-0.0365136
-0.0410213
-0.0428828
-0.0458404
-0.0530075
-0.0627302
-0.0694917
-0.0672759
-0.054551
-0.0379224
-0.0267828
-0.0266124
-0.0342791
-0.0412021
-0.040487
-0.0328931
-0.0246577
-0.0204059
-0.0203931
-0.0214686
-0.0210154
-0.0179582
-0.0137267
-0.0105513
-0.00987721
-0.0102361
-0.00932929
-0.00680752
-0.0045998
-0.0040044
-0.00439551
-0.00433595
-0.00333951
-0.00227324
-0.00227331
-0.00333962
-0.00433599
-0.00439548
-0.00400447
-0.00460001
-0.00680775
-0.00932944
-0.0102362
-0.00987744
-0.0105517
-0.013727
-0.0179585
-0.0210158
-0.021469
-0.0203936
-0.0204063
-0.0246582
-0.0328938
-0.040488
-0.0412032
-0.0342797
-0.0266125
-0.026783
-0.0379232
-0.0545526
-0.0672779
-0.0694931
-0.0627308
-0.0530076
-0.0458405
-0.0428835
-0.0410225
-0.0365148
-0.0280947
-0.0176342
-0.00882251
-0.00535691
-0.00819829
-0.0158834
-0.0258958
-0.0347981
-0.0404925
-0.0422205
-0.0399187
-0.0347623
-0.0278779
-0.0200152
-0.0120031
-0.00402621
-0.00560808
-0.0167461
-0.0278779
-0.038616
-0.0479411
-0.0547817
-0.0575117
-0.0548271
-0.0466985
-0.0341011
-0.0200402
-0.00891429
-0.00424736
-0.00804014
-0.0188469
-0.0319326
-0.0426457
-0.0484388
-0.0508569
-0.0548466
-0.0639353
-0.0759388
-0.0838054
-0.0799953
-0.062983
-0.041114
-0.0263375
-0.0252677
-0.0342266
-0.0425606
-0.0418261
-0.032634
-0.0223126
-0.0167288
-0.0163432
-0.0175645
-0.0170382
-0.0135217
-0.00838085
-0.0044356
-0.00356074
-0.00411381
-0.00296485
0.000180611
0.00269465
0.00313457
0.00279633
0.00321453
0.00431636
0.00516637
0.0051663
0.00431625
0.00321452
0.00279636
0.0031345
0.00269445
0.000180431
-0.00296495
-0.00411391
-0.00356094
-0.00443592
-0.00838119
-0.013522
-0.0170385
-0.0175648
-0.0163437
-0.0167293
-0.022313
-0.0326346
-0.0418271
-0.0425616
-0.0342271
-0.0252677
-0.0263376
-0.0411148
-0.0629847
-0.0799975
-0.0838071
-0.0759396
-0.0639355
-0.0548468
-0.0508577
-0.0484403
-0.0426473
-0.0319337
-0.0188472
-0.00803973
-0.00424678
-0.00891405
-0.0200405
-0.034102
-0.0466997
-0.0548284
-0.0575128
-0.0547826
-0.0479416
-0.0386163
-0.0278779
-0.016746
-0.00560808
-0.00700478
-0.0209331
-0.0347621
-0.0479411
-0.0592934
-0.0673761
-0.0701513
-0.0661566
-0.055211
-0.0387133
-0.020581
-0.00588468
0.00103586
-0.00214276
-0.0136029
-0.0280177
-0.0400424
-0.0467969
-0.0500648
-0.0553334
-0.0659227
-0.0791965
-0.0872322
-0.0817142
-0.0615321
-0.0360325
-0.0185996
-0.016283
-0.0252001
-0.0339083
-0.033351
-0.0237791
-0.012505
-0.00601069
-0.00502916
-0.00613715
-0.00566446
-0.0022544
0.0030908
0.00730647
0.00822639
0.00749944
0.008754
0.0121112
0.0144217
0.0144625
0.0142972
0.0152131
0.0161827
0.0164256
0.0164255
0.0161827
0.0152131
0.0142973
0.0144625
0.0144216
0.0121112
0.00875405
0.00749946
0.00822633
0.00730635
0.00309068
-0.00225445
-0.00566448
-0.00613732
-0.00502947
-0.00601099
-0.0125052
-0.0237794
-0.0333516
-0.0339091
-0.0252006
-0.016283
-0.0185997
-0.0360332
-0.0615336
-0.0817162
-0.0872338
-0.0791972
-0.0659228
-0.0553335
-0.0500655
-0.0467983
-0.040044
-0.0280188
-0.0136034
-0.00214253
0.00103628
-0.00588466
-0.0205816
-0.0387146
-0.0552128
-0.0661585
-0.0701529
-0.0673773
-0.0592942
-0.0479416
-0.0347623
-0.0209332
-0.00700482
-0.00803746
-0.0240935
-0.0399182
-0.0547817
-0.0673761
-0.0757815
-0.0777726
-0.0718414
-0.0577438
-0.0373974
-0.0152847
0.00307139
0.012567
0.0107794
-0.000219928
-0.0149692
-0.0276661
-0.0353906
-0.040021
-0.0468483
-0.0587001
-0.0724548
-0.0798311
-0.0726622
-0.0507412
-0.023729
-0.00510349
-0.00166352
-0.00953236
-0.0178608
-0.0179383
-0.00952791
0.00112033
0.00772499
0.00923835
0.008372
0.00856637
0.0113199
0.0160871
0.0199715
0.0207486
0.0199944
0.0212557
0.0243777
0.0260382
0.0255961
0.0257254
0.0271669
0.0278145
0.0272375
0.0272375
0.0278145
0.027167
0.0257255
0.0255961
0.0260383
0.0243778
0.0212558
0.0199944
0.0207487
0.0199716
0.0160872
0.01132
0.00856656
0.00837201
0.00923817
0.00772485
0.00112042
-0.0095278
-0.0179384
-0.0178612
-0.00953263
-0.00166346
-0.0051033
-0.0237292
-0.0507422
-0.0726636
-0.0798323
-0.0724553
-0.0587
-0.0468482
-0.0400214
-0.0353918
-0.0276676
-0.0149704
-0.000220445
0.0107795
0.0125673
0.00307124
-0.0152856
-0.0373989
-0.0577459
-0.0718437
-0.0777747
-0.0757833
-0.0673773
-0.0547826
-0.0399187
-0.0240937
-0.00803753
-0.00851279
-0.0255951
-0.0422197
-0.0575117
-0.0701513
-0.0777726
-0.078159
-0.0697374
-0.0522117
-0.0280578
-0.00206638
0.0198132
0.0318897
0.0319598
0.0221803
0.00776296
-0.00533794
-0.0145107
-0.0216116
-0.0309497
-0.0445084
-0.0585213
-0.0648127
-0.0564596
-0.0344927
-0.00825246
0.00998794
0.0142996
0.00835646
0.00122908
0.000287735
0.00628523
0.0147975
0.020665
0.0225367
0.0220123
0.0217944
0.0234974
0.0269584
0.0298328
0.0302658
0.0296734
0.0308341
0.0332221
0.0338956
0.0330186
0.0334836
0.035288
0.0354941
0.0341249
0.0341249
0.0354942
0.035288
0.0334835
0.0330185
0.0338957
0.0332223
0.0308343
0.0296734
0.0302659
0.029833
0.0269587
0.0234977
0.0217947
0.0220124
0.0225366
0.0206651
0.014798
0.00628586
0.000288161
0.00122913
0.00835638
0.0142998
0.00998843
-0.00825201
-0.0344928
-0.0564602
-0.0648134
-0.0585215
-0.0445081
-0.0309492
-0.0216116
-0.0145113
-0.00533899
0.00776209
0.0221799
0.03196
0.03189
0.0198131
-0.00206732
-0.0280596
-0.052214
-0.06974
-0.0781614
-0.0777747
-0.0701529
-0.0575128
-0.0422205
-0.0255956
-0.00851291
-0.00819619
-0.0246414
-0.0404917
-0.0548271
-0.0661566
-0.0718414
-0.0697374
-0.0581493
-0.0369848
-0.0093193
0.0199051
0.0444473
0.0585778
0.0605494
0.0522973
0.038554
0.0250144
0.0136203
0.00269047
-0.0104229
-0.0264177
-0.0408727
-0.046218
-0.037653
-0.0175568
0.00556383
0.0216594
0.0262977
0.0227907
0.0176257
0.0159222
0.0188127
0.0241393
0.0286716
0.0308691
0.031007
0.0307087
0.0314899
0.0333668
0.0348622
0.0350446
0.0350242
0.036169
0.0375456
0.0372276
0.036198
0.0370265
0.0389374
0.0387261
0.0368534
0.0368534
0.0387262
0.0389375
0.0370265
0.036198
0.0372278
0.0375459
0.0361691
0.0350241
0.0350446
0.0348625
0.0333672
0.0314903
0.0307089
0.0310071
0.030869
0.0286718
0.02414
0.0188136
0.0159229
0.0176258
0.0227905
0.0262977
0.02166
0.00556477
-0.0175561
-0.0376528
-0.0462181
-0.0408726
-0.026417
-0.0104219
0.00269127
0.0136205
0.0250142
0.0385536
0.0522973
0.0605497
0.0585782
0.0444474
0.0199045
-0.00932083
-0.036987
-0.058152
-0.06974
-0.0718437
-0.0661585
-0.0548284
-0.0404925
-0.0246419
-0.00819633
-0.00710735
-0.0212765
-0.0347973
-0.0466985
-0.055211
-0.0577438
-0.0522117
-0.0369848
-0.012459
0.0179828
0.0494282
0.0755453
0.0909307
0.094224
0.0870788
0.0737244
0.0590756
0.0443221
0.0283085
0.0102823
-0.00882615
-0.0239505
-0.0284854
-0.0203055
-0.00335025
0.015013
0.0276497
0.0322223
0.0315098
0.0290067
0.0269497
0.0265434
0.0280754
0.0307137
0.0330218
0.0339922
0.03408
0.0342723
0.0345205
0.034463
0.0345817
0.0355045
0.0367497
0.0370589
0.0360066
0.0352132
0.0363684
0.0380905
0.0376051
0.0356894
0.0356894
0.0376052
0.0380905
0.0363682
0.0352131
0.0360067
0.0370591
0.0367497
0.0355043
0.0345816
0.0344632
0.0345208
0.0342724
0.0340799
0.033992
0.0330216
0.0307138
0.028076
0.0265443
0.0269503
0.0290067
0.0315094
0.0322222
0.0276505
0.0150144
-0.00334885
-0.0203046
-0.028485
-0.0239501
-0.00882516
0.0102837
0.0283098
0.0443231
0.059076
0.0737245
0.0870792
0.0942247
0.0909315
0.0755459
0.049428
0.0179818
-0.0124607
-0.036987
-0.052214
-0.0577459
-0.0552128
-0.0466997
-0.0347981
-0.021277
-0.0071075
-0.00538029
-0.0159776
-0.0258952
-0.0341011
-0.0387133
-0.0373974
-0.0280578
-0.0093193
0.0179828
0.0504078
0.0829249
0.109362
0.124995
0.128822
0.12238
0.109252
0.0929911
0.0740902
0.052088
0.0280933
0.00519255
-0.0108488
-0.0148326
-0.00752514
0.00550629
0.0182396
0.0268405
0.0313725
0.0339524
0.0350446
0.0337273
0.0308579
0.0289868
0.0297302
0.0321223
0.0342455
0.0354399
0.0356603
0.0345855
0.0331337
0.0334155
0.035454
0.0368589
0.0362304
0.0348149
0.0345554
0.0358802
0.0371105
0.0365309
0.0350463
0.0350463
0.0365309
0.0371104
0.0358801
0.0345553
0.034815
0.0362304
0.0368588
0.0354537
0.0334153
0.0331338
0.0345858
0.0356603
0.0354396
0.034245
0.0321221
0.0297304
0.0289873
0.0308586
0.0337277
0.0350443
0.0339516
0.0313721
0.0268412
0.0182411
0.00550794
-0.00752397
-0.0148322
-0.0108486
0.00519344
0.0280949
0.0520897
0.0740917
0.0929921
0.109252
0.12238
0.128823
0.124996
0.109363
0.0829254
0.0504074
0.0179818
-0.00932086
-0.0280596
-0.037399
-0.0387146
-0.034102
-0.0258958
-0.0159779
-0.00538041
-0.00337637
-0.00995323
-0.0158833
-0.0200402
-0.020581
-0.0152847
-0.00206638
0.0199051
0.0494282
0.0829249
0.115148
0.14064
0.155649
0.159509
0.153784
0.141091
0.123266
0.100291
0.0723555
0.0423541
0.0159028
-0.000764286
-0.0042965
0.00190218
0.0108133
0.0177359
0.0221866
0.0266409
0.0325835
0.0377462
0.0381735
0.0340154
0.0295456
0.028507
0.0307707
0.0341515
0.0369701
0.0377778
0.0358845
0.033464
0.0340551
0.0370919
0.0386601
0.0374083
0.0360381
0.0364665
0.0377673
0.0382985
0.0377998
0.0371106
0.0371106
0.0377998
0.0382984
0.0377672
0.0364666
0.0360382
0.0374082
0.0386599
0.0370917
0.0340551
0.0334641
0.0358846
0.0377777
0.0369695
0.034151
0.0307706
0.0285073
0.0295461
0.0340157
0.0381734
0.0377454
0.0325823
0.0266402
0.0221871
0.0177373
0.0108149
0.0019034
-0.00429605
-0.000764202
0.0159034
0.0423554
0.0723572
0.100293
0.123267
0.141091
0.153784
0.15951
0.15565
0.140641
0.115149
0.0829254
0.0494279
0.0199044
-0.00206738
-0.0152856
-0.0205816
-0.0200405
-0.0158834
-0.00995321
-0.00337635
-0.00185935
-0.00541707
-0.0081986
-0.00891429
-0.00588468
0.00307139
0.0198132
0.0444473
0.0755453
0.109362
0.14064
0.164972
0.179394
0.183491
0.178986
0.167308
0.148548
0.122365
0.0894727
0.0544628
0.0254069
0.00868266
0.00574985
0.0110546
0.0163052
0.0179148
0.018548
0.0228731
0.0317844
0.0407923
0.0434428
0.0389942
0.0326372
0.0296289
0.0310321
0.0350667
0.0392026
0.0405376
0.038096
0.0349776
0.0355789
0.0389558
0.0404029
0.0387344
0.0375799
0.0385662
0.039575
0.0392569
0.038905
0.0391625
0.0391625
0.038905
0.0392568
0.039575
0.0385663
0.03758
0.0387342
0.0404027
0.0389559
0.0355791
0.0349778
0.0380961
0.0405374
0.039202
0.0350663
0.0310323
0.0296295
0.0326377
0.0389942
0.0434424
0.0407915
0.0317834
0.0228726
0.0185487
0.0179164
0.016307
0.0110559
0.00575019
0.0086825
0.025407
0.0544636
0.0894739
0.122366
0.148549
0.167308
0.178986
0.183491
0.179395
0.164974
0.140641
0.109363
0.0755458
0.0444474
0.019813
0.00307117
-0.00588472
-0.0089141
-0.00819832
-0.00541678
-0.00185922
-0.00139524
-0.00392536
-0.00535747
-0.00424736
0.00103586
0.012567
0.0318897
0.0585778
0.0909307
0.124995
0.155649
0.179394
0.194032
0.19958
0.197815
0.188759
0.17078
0.143124
0.106884
0.0682663
0.0374505
0.0208098
0.0180708
0.0220082
0.0234984
0.0200387
0.0170435
0.0208296
0.0317206
0.0436448
0.0485531
0.0447443
0.0373465
0.0323872
0.0322942
0.0361559
0.0408253
0.0423605
0.039653
0.0361252
0.0362539
0.0391061
0.0400107
0.037997
0.0370058
0.038255
0.0387192
0.0374617
0.0371981
0.0383444
0.0383444
0.0371981
0.0374617
0.0387192
0.0382553
0.037006
0.0379969
0.0400106
0.0391064
0.0362545
0.0361255
0.0396531
0.0423604
0.0408251
0.036156
0.0322949
0.0323882
0.0373472
0.0447443
0.0485526
0.0436441
0.0317201
0.0208297
0.0170444
0.0200405
0.0235003
0.0220095
0.0180711
0.0208095
0.0374502
0.0682664
0.106885
0.143124
0.17078
0.188759
0.197814
0.19958
0.194032
0.179395
0.15565
0.124996
0.0909314
0.0585781
0.0318899
0.0125672
0.00103622
-0.00424682
-0.00535694
-0.00392492
-0.00139504
-0.00227645
-0.00634381
-0.00882295
-0.00804014
-0.00214276
0.0107794
0.0319598
0.0605494
0.094224
0.128822
0.159509
0.183491
0.19958
0.208244
0.210864
0.206084
0.190717
0.163486
0.125904
0.0856111
0.0541639
0.0377437
0.0344826
0.036012
0.0331721
0.0245421
0.017622
0.0196516
0.0304868
0.0432206
0.0493157
0.0461867
0.0380186
0.0309682
0.028657
0.0311837
0.0351436
0.0363645
0.0336826
0.0301248
0.0295035
0.031258
0.0313765
0.0291411
0.0283415
0.0297477
0.0296648
0.0275585
0.0273311
0.0292162
0.0292162
0.0273311
0.0275586
0.029665
0.0297479
0.0283416
0.0291411
0.0313766
0.0312584
0.0295041
0.0301251
0.0336825
0.0363644
0.0351438
0.0311843
0.0286581
0.0309694
0.0380192
0.0461866
0.0493153
0.0432205
0.0304872
0.0196525
0.0176235
0.0245443
0.0331744
0.0360137
0.0344833
0.0377436
0.0541635
0.0856109
0.125905
0.163486
0.190716
0.206083
0.210863
0.208243
0.19958
0.183491
0.15951
0.128823
0.0942246
0.0605497
0.0319599
0.0107794
-0.00214259
-0.00803977
-0.00882253
-0.00634344
-0.00227629
-0.00429888
-0.012111
-0.017634
-0.0188469
-0.0136029
-0.000219928
0.0221803
0.0522973
0.0870788
0.12238
0.153784
0.178986
0.197815
0.210864
0.218773
0.219164
0.207513
0.181971
0.144638
0.104223
0.0727623
0.0561208
0.0511611
0.0489629
0.041177
0.0273987
0.0164425
0.0157707
0.0247633
0.036383
0.0425853
0.040139
0.0317222
0.0230881
0.0184744
0.018812
0.0210139
0.0215432
0.0192083
0.0160684
0.0148213
0.0153295
0.014549
0.012154
0.0116425
0.0132621
0.0127808
0.0100035
0.0097739
0.012207
0.0122069
0.00977389
0.0100036
0.0127809
0.013262
0.0116424
0.012154
0.0145491
0.0153298
0.0148216
0.0160685
0.019208
0.021543
0.0210143
0.0188131
0.0184757
0.0230891
0.0317225
0.0401387
0.0425851
0.0363834
0.0247646
0.0157725
0.0164446
0.0274011
0.0411795
0.0489649
0.0511622
0.0561211
0.0727619
0.104223
0.144638
0.181971
0.207512
0.219163
0.218771
0.210863
0.197814
0.178986
0.153784
0.12238
0.0870791
0.0522973
0.0221799
-0.000220486
-0.0136034
-0.0188472
-0.0176342
-0.012111
-0.00429886
-0.00667766
-0.0189039
-0.0280939
-0.0319326
-0.0280177
-0.0149692
0.00776296
0.038554
0.0737244
0.109252
0.141091
0.167308
0.188759
0.206084
0.219164
0.224874
0.217409
0.19432
0.158462
0.119145
0.0881133
0.0708184
0.0631294
0.0560699
0.0428531
0.0242808
0.00973027
0.00618494
0.0124073
0.0218175
0.027613
0.026272
0.0188771
0.0102153
0.00431302
0.00257965
0.00290352
0.00292604
0.00149211
-0.000444049
-0.00146752
-0.00168711
-0.00316796
-0.0055017
-0.00540701
-0.00331424
-0.00390163
-0.00703053
-0.0072089
-0.00440987
-0.00440994
-0.00720896
-0.00703041
-0.00390157
-0.00331452
-0.00540739
-0.00550172
-0.00316767
-0.00168695
-0.00146764
-0.000444309
0.00149177
0.00292583
0.00290396
0.00258082
0.00431417
0.0102158
0.0188768
0.0262714
0.0276127
0.0218181
0.012409
0.006187
0.0097322
0.0242827
0.0428553
0.0560718
0.0631305
0.0708186
0.0881127
0.119144
0.158461
0.194319
0.217408
0.224872
0.219163
0.206083
0.188759
0.167308
0.141091
0.109252
0.0737245
0.0385536
0.00776207
-0.0149704
-0.0280188
-0.0319337
-0.0280947
-0.0189043
-0.00667783
-0.00857962
-0.0243258
-0.0365136
-0.0426457
-0.0400424
-0.0276661
-0.00533794
0.0250144
0.0590756
0.0929911
0.123266
0.148548
0.17078
0.190717
0.207513
0.217409
0.213665
0.193512
0.160702
0.124524
0.0956528
0.0788035
0.0688521
0.0572026
0.039267
0.0173666
0.000603502
-0.00517199
-0.00180045
0.00495897
0.0100342
0.0101013
0.00503476
-0.00194207
-0.00777586
-0.0108804
-0.0119937
-0.0122107
-0.0124137
-0.0123439
-0.0119795
-0.0121006
-0.013908
-0.0157913
-0.0146862
-0.0118813
-0.0122675
-0.015284
-0.0152666
-0.0123045
-0.0123046
-0.0152667
-0.0152839
-0.0122674
-0.0118817
-0.0146867
-0.0157913
-0.0139077
-0.0121006
-0.0119801
-0.0123445
-0.012414
-0.0122108
-0.0119933
-0.0108795
-0.00777519
-0.00194241
0.00503361
0.0101002
0.0100338
0.00495964
-0.00179886
-0.00517019
0.000604867
0.0173677
0.0392683
0.0572039
0.0688529
0.0788033
0.0956516
0.124522
0.1607
0.193511
0.213664
0.217408
0.207512
0.190716
0.17078
0.148549
0.123267
0.0929921
0.059076
0.0250142
-0.005339
-0.0276676
-0.040044
-0.0426473
-0.0365148
-0.0243266
-0.00857991
-0.00958451
-0.0272254
-0.0410213
-0.0484388
-0.0467969
-0.0353906
-0.0145107
0.0136203
0.0443221
0.0740902
0.100291
0.122365
0.143124
0.163486
0.181971
0.19432
0.193512
0.176811
0.148745
0.118094
0.0938575
0.0795997
0.0691436
0.0547525
0.0344451
0.0120895
-0.00425843
-0.0102862
-0.0083415
-0.00347033
0.00117033
0.00310391
0.00151215
-0.00242389
-0.00703676
-0.0107192
-0.0129878
-0.0138661
-0.0134197
-0.0113603
-0.00923845
-0.00912512
-0.0113228
-0.0127191
-0.0107645
-0.00766631
-0.00794013
-0.0105008
-0.010258
-0.00749198
-0.00749205
-0.0102581
-0.0105008
-0.0079401
-0.00766652
-0.0107649
-0.0127191
-0.0113224
-0.00912504
-0.00923913
-0.0113611
-0.0134197
-0.0138655
-0.012987
-0.0107184
-0.00703643
-0.00242458
0.00151067
0.00310272
0.00117017
-0.00346947
-0.00834011
-0.010285
-0.00425792
0.0120894
0.0344451
0.0547527
0.0691434
0.0795984
0.093855
0.118091
0.148742
0.176809
0.193511
0.194319
0.181971
0.163486
0.143124
0.122366
0.100293
0.0740917
0.0443231
0.0136205
-0.0145113
-0.0353918
-0.0467983
-0.0484403
-0.0410225
-0.0272261
-0.0095848
-0.00997117
-0.0284405
-0.0428828
-0.0508569
-0.0500648
-0.040021
-0.0216116
0.00269047
0.0283085
0.052088
0.0723555
0.0894727
0.106884
0.125904
0.144638
0.158462
0.160702
0.148745
0.127554
0.105236
0.0886765
0.0796777
0.071033
0.0562317
0.0359403
0.0154391
0.00147774
-0.00322189
-0.00160477
0.00168513
0.00553861
0.008996
0.0108441
0.0101272
0.00721874
0.00352131
3.2474e-05
-0.00240307
-0.00231148
0.00112785
0.00459513
0.00458823
0.00195985
0.00109333
0.0033983
0.00594804
0.00554476
0.00378892
0.00424332
0.00636253
0.00636254
0.00424329
0.00378885
0.00554481
0.0059482
0.0033984
0.00109352
0.00196029
0.00458853
0.00459488
0.00112757
-0.00231089
-0.0024016
3.39227e-05
0.00352211
0.00721877
0.0101264
0.0108428
0.00899509
0.00553882
0.00168628
-0.00160356
-0.00322143
0.00147733
0.0154381
0.0359392
0.0562308
0.0710318
0.0796754
0.0886729
0.105232
0.12755
0.148742
0.1607
0.158461
0.144638
0.125905
0.106885
0.0894739
0.0723572
0.0520897
0.0283098
0.00269126
-0.0216116
-0.0400214
-0.0500655
-0.0508577
-0.0428835
-0.0284409
-0.00997135
-0.0105546
-0.0302887
-0.0458404
-0.0548466
-0.0553334
-0.0468483
-0.0309497
-0.0104229
0.0102823
0.0280933
0.0423541
0.0544628
0.0682663
0.0856111
0.104223
0.119145
0.124524
0.118094
0.105236
0.0934125
0.0868827
0.0850416
0.079969
0.0665137
0.0476574
0.030081
0.0193413
0.0165221
0.0177999
0.018898
0.0208239
0.0243582
0.0280042
0.0291958
0.0274792
0.0235318
0.018042
0.0127494
0.0111925
0.0146457
0.0180795
0.0171226
0.0140659
0.0137094
0.0155952
0.0165665
0.0157398
0.0150576
0.0156537
0.0166924
0.0166925
0.0156537
0.0150575
0.0157398
0.016567
0.0155958
0.0137097
0.0140661
0.017123
0.0180799
0.0146462
0.0111936
0.0127514
0.0180439
0.0235325
0.0274788
0.0291951
0.0280035
0.0243579
0.0208244
0.0188993
0.017801
0.0165222
0.0193403
0.0300796
0.047656
0.0665123
0.0799674
0.0850391
0.0868788
0.0934082
0.105232
0.118091
0.124523
0.119144
0.104223
0.0856109
0.0682665
0.0544636
0.0423555
0.0280949
0.0102837
-0.0104219
-0.0309493
-0.0468483
-0.0553336
-0.0548469
-0.0458405
-0.0302887
-0.0105546
-0.0121411
-0.0349319
-0.0530075
-0.0639353
-0.0659227
-0.0587001
-0.0445084
-0.0264177
-0.00882615
0.00519255
0.0159028
0.0254069
0.0374505
0.0541639
0.0727623
0.0881133
0.0956528
0.0938575
0.0886765
0.0868827
0.089922
0.0946957
0.0930522
0.0810552
0.0635861
0.0488592
0.0412639
0.0400708
0.0405407
0.0390311
0.0382644
0.0403511
0.043788
0.0453854
0.0442149
0.0395387
0.031339
0.0224541
0.0183557
0.0202219
0.0218915
0.0192053
0.0158916
0.0160137
0.0167976
0.0154557
0.0140167
0.0145071
0.0151509
0.0148631
0.0148632
0.015151
0.0145069
0.0140167
0.0154563
0.0167985
0.0160141
0.0158916
0.0192056
0.0218925
0.0202232
0.0183572
0.0224561
0.0313408
0.0395393
0.0442142
0.0453844
0.0437877
0.0403515
0.0382653
0.0390323
0.0405418
0.0400708
0.0412629
0.0488578
0.0635848
0.0810541
0.0930509
0.0946935
0.0899187
0.0868788
0.0886729
0.0938551
0.0956517
0.0881128
0.072762
0.0541636
0.0374503
0.025407
0.0159034
0.00519348
-0.00882513
-0.0264169
-0.0445081
-0.0587
-0.0659229
-0.0639355
-0.0530076
-0.0349319
-0.0121411
-0.0143471
-0.0412978
-0.0627302
-0.0759388
-0.0791965
-0.0724548
-0.0585213
-0.0408727
-0.0239505
-0.0108488
-0.000764286
0.00868266
0.0208098
0.0377437
0.0561208
0.0708184
0.0788035
0.0795997
0.0796777
0.0850416
0.0946957
0.103353
0.102907
0.0905232
0.0728101
0.0595162
0.0537705
0.0531409
0.0524134
0.0487046
0.0454974
0.0456487
0.0481815
0.0500935
0.0498774
0.0450127
0.0349688
0.0236544
0.017554
0.0172058
0.0163679
0.0121236
0.0092255
0.010128
0.00986113
0.00638253
0.00450848
0.0061566
0.00684708
0.00532567
0.00532578
0.00684721
0.00615657
0.00450854
0.00638312
0.00986202
0.0101284
0.00922538
0.0121239
0.0163693
0.0172078
0.0175558
0.0236558
0.0349698
0.0450126
0.049876
0.0500919
0.048181
0.045649
0.0454979
0.048705
0.0524135
0.0531405
0.0537695
0.059515
0.0728091
0.0905227
0.102906
0.103352
0.0946935
0.0850391
0.0796754
0.0795985
0.0788033
0.0708187
0.0561211
0.0377437
0.0208096
0.00868253
-0.000764159
-0.0108485
-0.0239501
-0.0408725
-0.0585215
-0.0724553
-0.0791972
-0.0759396
-0.0627308
-0.0412982
-0.0143472
-0.0159319
-0.0458531
-0.0694917
-0.0838054
-0.0872322
-0.0798311
-0.0648127
-0.046218
-0.0284854
-0.0148326
-0.0042965
0.00574985
0.0180708
0.0344826
0.0511611
0.0631294
0.0688521
0.0691436
0.071033
0.079969
0.0930522
0.102907
0.101604
0.0875487
0.0688344
0.0562539
0.051676
0.0514346
0.0502912
0.0458941
0.0415378
0.0405383
0.042828
0.0458013
0.0471714
0.043039
0.0328339
0.0209866
0.0137893
0.0110742
0.00762637
0.00220616
-1.7056e-05
0.00167974
0.000791724
-0.00407608
-0.00615404
-0.00367008
-0.00298396
-0.00542659
-0.00542654
-0.00298379
-0.00366983
-0.00615377
-0.00407568
0.000792335
0.00168027
-1.68652e-05
0.00220659
0.00762782
0.0110764
0.0137909
0.020987
0.0328333
0.0430376
0.0471692
0.045799
0.0428266
0.0405378
0.0415376
0.0458935
0.0502904
0.0514337
0.0516751
0.0562529
0.0688337
0.0875486
0.101604
0.102906
0.0930509
0.0799674
0.0710318
0.0691434
0.0688529
0.0631306
0.0511622
0.0344833
0.0180711
0.00575021
-0.00429601
-0.0148321
-0.028485
-0.0462181
-0.0648133
-0.0798323
-0.0872338
-0.0838071
-0.0694931
-0.0458541
-0.0159323
-0.0155809
-0.0447476
-0.0672759
-0.0799953
-0.0817142
-0.0726622
-0.0564596
-0.037653
-0.0203055
-0.00752514
0.00190218
0.0110546
0.0220082
0.036012
0.0489629
0.0560699
0.0572026
0.0547525
0.0562317
0.0665137
0.0810552
0.0905232
0.0875487
0.0719109
0.0526489
0.04098
0.0378334
0.0387912
0.0387824
0.0358324
0.0325756
0.0325818
0.0364659
0.0418024
0.045681
0.0437195
0.0354887
0.0250493
0.0177024
0.0129626
0.00724704
0.000743122
-0.00135379
0.000589933
-0.000566563
-0.00604616
-0.00828022
-0.00558046
-0.00512828
-0.00820952
-0.00820948
-0.00512799
-0.00557983
-0.00827965
-0.00604588
-0.00056623
0.000590649
-0.00135289
0.000744133
0.00724849
0.0129644
0.0177036
0.0250488
0.0354867
0.0437167
0.0456781
0.0417998
0.0364639
0.0325806
0.0325746
0.0358313
0.0387811
0.0387901
0.0378327
0.0409795
0.0526485
0.0719108
0.0875487
0.0905227
0.0810541
0.0665123
0.0562307
0.0547526
0.0572039
0.0560718
0.0489649
0.0360137
0.0220095
0.0110558
0.00190342
-0.00752393
-0.0203045
-0.0376528
-0.0564602
-0.0726636
-0.0817162
-0.0799975
-0.0672779
-0.044749
-0.0155814
-0.01292
-0.0368904
-0.054551
-0.062983
-0.0615321
-0.0507412
-0.0344927
-0.0175568
-0.00335025
0.00550629
0.0108133
0.0163052
0.0234984
0.0331721
0.041177
0.0428531
0.039267
0.0344451
0.0359403
0.0476574
0.0635861
0.0728101
0.0688344
0.0526489
0.0336943
0.0232198
0.0215672
0.0238647
0.0254905
0.0251199
0.0246273
0.0274292
0.0342426
0.0426907
0.0497109
0.0511587
0.0464881
0.0387311
0.0320483
0.0259915
0.0184567
0.0105407
0.00747947
0.00872862
0.0072719
0.00161232
-0.000861257
0.00142774
0.00127631
-0.00237102
-0.00237091
0.00127681
0.00142867
-0.00086044
0.00161267
0.00727223
0.00872964
0.00748116
0.0105425
0.0184582
0.0259926
0.0320486
0.0387297
0.046485
0.0511548
0.0497074
0.0426881
0.0342407
0.0274277
0.024626
0.0251188
0.0254896
0.0238643
0.0215671
0.0232197
0.033694
0.0526485
0.0688338
0.0728092
0.0635849
0.047656
0.0359392
0.0344451
0.0392683
0.0428553
0.0411795
0.0331744
0.0235002
0.0163069
0.0108149
0.00550796
-0.00334883
-0.0175561
-0.0344927
-0.0507422
-0.0615336
-0.0629847
-0.0545526
-0.0368915
-0.0129204
-0.0094078
-0.0265154
-0.0379224
-0.041114
-0.0360325
-0.023729
-0.00825246
0.00556383
0.015013
0.0182396
0.0177359
0.0179148
0.0200387
0.0245421
0.0273987
0.0242808
0.0173666
0.0120895
0.0154391
0.030081
0.0488592
0.0595162
0.0562539
0.04098
0.0232198
0.0138239
0.0126564
0.0147315
0.0164263
0.0175333
0.0192353
0.0244535
0.0336312
0.0445334
0.0543035
0.0592677
0.0584672
0.053835
0.0485301
0.0420034
0.0330175
0.023302
0.0183545
0.0179885
0.0157677
0.00992168
0.00716971
0.0087232
0.00763707
0.00331239
0.00331261
0.00763774
0.00872419
0.00717057
0.00992222
0.0157683
0.0179898
0.0183565
0.0233039
0.0330186
0.0420032
0.0485287
0.0538323
0.0584632
0.0592631
0.0542997
0.044531
0.0336298
0.0244524
0.0192346
0.0175331
0.0164267
0.0147324
0.0126576
0.0138246
0.0232197
0.0409795
0.056253
0.0595151
0.0488579
0.0300796
0.0154381
0.0120894
0.0173678
0.0242828
0.0274011
0.0245443
0.0200405
0.0179164
0.0177373
0.0182411
0.0150144
0.00556477
-0.00825203
-0.0237292
-0.0360332
-0.0411149
-0.0379233
-0.026516
-0.00940798
-0.00709087
-0.0196055
-0.0267828
-0.0263375
-0.0185996
-0.00510349
0.00998794
0.0216594
0.0276497
0.0268405
0.0221866
0.018548
0.0170435
0.017622
0.0164425
0.00973027
0.000603502
-0.00425843
0.00147774
0.0193413
0.0412639
0.0537705
0.051676
0.0378334
0.0215672
0.0126564
0.0105192
0.0104071
0.0100637
0.010677
0.0130076
0.0194136
0.0299215
0.0425057
0.0545162
0.0627063
0.0657329
0.0647927
0.0619764
0.0560535
0.0461499
0.0347821
0.0277677
0.0251656
0.021371
0.0148902
0.0117819
0.0125299
0.0103538
0.00525679
0.00525705
0.0103544
0.0125306
0.0117827
0.014891
0.0213721
0.0251669
0.0277692
0.0347834
0.0461502
0.0560518
0.0619731
0.0647884
0.0657281
0.0627017
0.0545127
0.0425038
0.0299209
0.0194136
0.0130081
0.0106782
0.0100655
0.0104094
0.0105214
0.0126576
0.0215671
0.0378328
0.0516752
0.0537696
0.041263
0.0193403
0.00147733
-0.00425792
0.000604895
0.00973225
0.0164446
0.0176236
0.0170444
0.0185487
0.0221871
0.0268412
0.0276505
0.02166
0.00998838
-0.00510336
-0.0185998
-0.0263377
-0.026783
-0.0196056
-0.00709086
-0.00723372
-0.0197947
-0.0266124
-0.0252677
-0.016283
-0.00166352
0.0142996
0.0262977
0.0322223
0.0313725
0.0266409
0.0228731
0.0208296
0.0196516
0.0157707
0.00618494
-0.00517199
-0.0102862
-0.00322189
0.0165221
0.0400708
0.0531409
0.0514346
0.0387912
0.0238647
0.0147315
0.0104071
0.00644261
0.00196059
-0.000204695
0.000778477
0.00678202
0.0174326
0.0309495
0.0447037
0.0558232
0.0629371
0.0668925
0.0682912
0.064572
0.0550971
0.0434762
0.0355048
0.0309257
0.0251297
0.0176627
0.0141839
0.0142929
0.0112973
0.00569891
0.00569902
0.0112976
0.0142934
0.0141846
0.0176639
0.0251312
0.0309268
0.0355052
0.0434761
0.0550959
0.0645688
0.0682861
0.0668866
0.0629318
0.0558191
0.0447011
0.0309485
0.017433
0.00678326
0.000780265
-0.000202261
0.00196351
0.0064456
0.0104094
0.0147324
0.0238643
0.0387902
0.0514338
0.0531406
0.0400709
0.0165222
-0.00322144
-0.010285
-0.00517017
0.00618705
0.0157725
0.0196526
0.0208297
0.0228727
0.0266402
0.0313721
0.0322222
0.0262977
0.0142997
-0.0016635
-0.0162831
-0.0252678
-0.0266125
-0.0197948
-0.00723371
-0.00908859
-0.0249638
-0.0342791
-0.0342266
-0.0252001
-0.00953236
0.00835646
0.0227907
0.0315098
0.0339524
0.0325835
0.0317844
0.0317206
0.0304868