/*--------------------------------*- C++ -*----------------------------------*\
  =========                 |
  \\      /  F ield         | OpenFOAM: The Open Source CFD Toolbox
   \\    /   O peration     | Website:  https://openfoam.org
    \\  /    A nd           | Version:  10
     \\/     M anipulation  |
\*---------------------------------------------------------------------------*/
FoamFile
{
    format      ascii;
    class       volScalarField;
    location    "69";
    object      h;
}
// * * * * * * * * * * * * * * * * * * * * * * * * * * * * * * * * * * * * * //

dimensions      [0 1 0 0 0 0 0];

internalField   nonuniform List<scalar> 
10000
(
0.000107123
0.00044932
0.00100891
0.00161725
0.00209067
0.00234816
0.00240191
0.00239488
0.00248475
0.00259012
0.00239585
0.00174513
0.000837784
1.51041e-05
-0.000447501
-0.000328829
0.000433635
0.00157606
0.0027002
0.00364031
0.00442785
0.00500394
0.00524381
0.00514234
0.00479784
0.0041935
0.00319501
0.00186002
0.000623347
1.16526e-05
0.000352788
0.00180023
0.00429903
0.00740095
0.0103308
0.0124199
0.0135219
0.0140162
0.0142793
0.014217
0.0133914
0.0114698
0.00859256
0.00544018
0.00277927
0.000955968
-0.000214493
-0.00117553
-0.00210761
-0.00273662
-0.00273667
-0.00210776
-0.0011758
-0.000214867
0.00095558
0.00277899
0.00544011
0.00859277
0.0114703
0.0133921
0.0142178
0.0142801
0.0140169
0.0135225
0.0124202
0.0103308
0.00740064
0.00429845
0.00179944
0.000351877
1.07565e-05
0.000622646
0.00185968
0.00319509
0.00419391
0.00479839
0.00514284
0.00524411
0.00500403
0.00442782
0.0036403
0.00270026
0.00157608
0.000433477
-0.000329183
-0.000447887
1.49374e-05
0.000837991
0.00174562
0.00239627
0.00259016
0.00248438
0.00239442
0.00240174
0.00234839
0.00209107
0.00161743
0.00100869
0.000448919
0.000106925
0.00044932
0.00163169
0.00326351
0.00492887
0.00625929
0.00711634
0.00747151
0.00757158
0.00775401
0.00781401
0.00699002
0.00497077
0.00236323
7.0237e-05
-0.0012168
-0.000892318
0.00127348
0.00458987
0.00793372
0.0107904
0.0131797
0.0148729
0.0154996
0.0150914
0.0140037
0.0122394
0.00941461
0.00566182
0.00219125
0.000495119
0.00152656
0.00576536
0.0130894
0.0222027
0.0308176
0.0369401
0.0401224
0.0414879
0.0421778
0.041954
0.0395441
0.0339523
0.0255569
0.0163223
0.00848193
0.00305327
-0.000494781
-0.00344075
-0.00628446
-0.00819434
-0.0081945
-0.00628497
-0.00344161
-0.000495892
0.00305217
0.00848118
0.0163221
0.0255575
0.0339536
0.0395461
0.0419563
0.0421802
0.0414901
0.040124
0.036941
0.0308176
0.0222017
0.0130876
0.00576306
0.00152398
0.000492611
0.00218926
0.00566077
0.00941469
0.0122404
0.0140053
0.0150928
0.0155006
0.0148733
0.0131796
0.0107903
0.00793374
0.00458981
0.00127304
-0.000893198
-0.00121773
6.98222e-05
0.0023637
0.00497191
0.00699107
0.00781421
0.00775324
0.00757054
0.00747107
0.00711679
0.00626013
0.0049293
0.00326314
0.0016309
0.000448919
0.00100891
0.00326351
0.00579833
0.0081525
0.0101517
0.0118065
0.0129023
0.013399
0.0135217
0.0130317
0.0111291
0.00768837
0.0037164
0.000390035
-0.00148695
-0.00105001
0.0022035
0.00740275
0.0128738
0.0176997
0.0216974
0.0243551
0.0250995
0.0241384
0.0222272
0.0194817
0.0152742
0.00969198
0.0045032
0.00199061
0.00369335
0.0104591
0.0221581
0.0367254
0.0504533
0.0600949
0.0649347
0.0668366
0.0677287
0.0673129
0.0635514
0.0547693
0.0414732
0.026725
0.0140702
0.00515673
-0.000827559
-0.0058672
-0.0106894
-0.0139036
-0.0139039
-0.0106903
-0.00586864
-0.000829321
0.00515508
0.0140691
0.0267248
0.0414742
0.0547713
0.0635543
0.0673166
0.0677327
0.0668403
0.0649375
0.0600964
0.0504532
0.0367238
0.0221553
0.0104554
0.00368942
0.00198684
0.00450015
0.00969021
0.015274
0.019483
0.0222294
0.0241407
0.0251013
0.024356
0.0216975
0.0176995
0.0128735
0.0074024
0.00220282
-0.001051
-0.00148791
0.000389602
0.00371681
0.00768946
0.0111302
0.0130322
0.0135212
0.0133982
0.0129018
0.0118066
0.0101522
0.00815291
0.00579829
0.00326314
0.00100869
0.00161725
0.00492887
0.0081525
0.0109437
0.0135406
0.016186
0.0183611
0.0194699
0.0194236
0.018036
0.0148027
0.0100311
0.0050688
0.0011051
-0.00118301
-0.000768147
0.00321689
0.00995955
0.0174089
0.0241695
0.0296414
0.0329513
0.0334437
0.0317011
0.0290155
0.0256547
0.0206863
0.0139835
0.0076343
0.00456125
0.00689014
0.0158648
0.0313384
0.0505073
0.0683715
0.0806048
0.0863634
0.0882962
0.0891359
0.0885879
0.0838873
0.0726276
0.0552955
0.0358157
0.0188578
0.00666167
-0.0017721
-0.00896438
-0.0157664
-0.02026
-0.0202604
-0.0157675
-0.00896624
-0.00177434
0.0066596
0.0188565
0.0358156
0.0552967
0.0726301
0.0838911
0.0885925
0.089141
0.088301
0.0863672
0.0806069
0.0683715
0.0505053
0.0313347
0.0158602
0.00688516
0.00455649
0.00763039
0.0139811
0.0206857
0.0256557
0.0290177
0.0317037
0.0334461
0.0329529
0.0296419
0.0241693
0.0174084
0.00995882
0.00321604
-0.000768936
-0.00118353
0.00110492
0.00506897
0.0100316
0.0148034
0.0180367
0.0194239
0.0194698
0.0183607
0.0161855
0.0135402
0.0109437
0.00815291
0.0049293
0.00161742
0.00209067
0.00625929
0.0101517
0.0135406
0.016914
0.0205846
0.0237259
0.0252697
0.0248765
0.0224658
0.0178956
0.0118932
0.00605268
0.00151648
-0.00116184
-0.000819888
0.00373503
0.0118075
0.0210556
0.0295591
0.0361922
0.0397532
0.0396702
0.0370562
0.0337968
0.0303034
0.0252886
0.0182695
0.0114163
0.00811732
0.0110544
0.0218582
0.0403298
0.0629809
0.083717
0.0973789
0.103165
0.104536
0.105021
0.104397
0.099238
0.0863654
0.0660807
0.0428799
0.0223072
0.00713011
-0.00372508
-0.0131031
-0.0218518
-0.0275719
-0.0275723
-0.0218531
-0.0131052
-0.00372758
0.00712784
0.0223058
0.0428799
0.0660821
0.0863683
0.0992423
0.104403
0.105027
0.104541
0.103169
0.0973815
0.0837174
0.062979
0.040326
0.0218531
0.0110488
0.00811186
0.0114118
0.0182666
0.0252875
0.0303039
0.0337985
0.0370586
0.0396728
0.0397553
0.0361934
0.0295593
0.021055
0.0118065
0.00373402
-0.000820429
-0.00116183
0.00151666
0.00605268
0.011893
0.0178957
0.0224664
0.0248775
0.0252705
0.023726
0.0205838
0.016913
0.0135402
0.0101522
0.00626013
0.00209107
0.00234816
0.00711634
0.0118065
0.016186
0.0205846
0.0250898
0.0286861
0.0301903
0.0292575
0.0259008
0.0201574
0.0129473
0.0060257
0.000648511
-0.00252344
-0.00218682
0.00296718
0.0122116
0.0229266
0.0327238
0.0400267
0.0434577
0.0426596
0.0392815
0.0357349
0.0325743
0.0282159
0.0217689
0.0152329
0.0121845
0.0157271
0.0278382
0.0482921
0.0730837
0.0953175
0.109262
0.114259
0.114512
0.114297
0.113569
0.108387
0.0948309
0.0728524
0.0471677
0.0238664
0.00613378
-0.00705733
-0.0186242
-0.029258
-0.0361286
-0.0361291
-0.0292595
-0.0186264
-0.00705984
0.00613161
0.0238652
0.0471678
0.0728541
0.094834
0.108391
0.113575
0.114304
0.114518
0.114264
0.109265
0.0953184
0.0730821
0.0482884
0.0278331
0.0157214
0.0121789
0.0152281
0.0217655
0.0282142
0.032574
0.0357357
0.0392832
0.042662
0.0434602
0.0400285
0.0327245
0.0229263
0.0122107
0.00296619
-0.00218722
-0.00252316
0.000648942
0.00602573
0.0129469
0.0201572
0.0259011
0.0292585
0.0301914
0.0286867
0.0250895
0.0205838
0.0161855
0.0118066
0.00711679
0.00234839
0.00240191
0.00747151
0.0129023
0.0183611
0.0237259
0.0286861
0.0322095
0.0333258
0.0318501
0.0277901
0.0211141
0.0126895
0.00438692
-0.00219135
-0.00599705
-0.00559547
0.000159246
0.0102941
0.0219301
0.0323655
0.0397819
0.0428392
0.0414572
0.037671
0.0342262
0.0318084
0.0286784
0.0235764
0.0181152
0.0157558
0.0198374
0.0326177
0.0538929
0.0793701
0.101706
0.114875
0.118415
0.117134
0.115941
0.115058
0.110215
0.0968402
0.0744149
0.047539
0.0225029
0.00277329
-0.0125218
-0.026132
-0.0384598
-0.0463261
-0.0463266
-0.0384613
-0.0261341
-0.012524
0.00277152
0.0225021
0.0475394
0.0744166
0.0968432
0.110219
0.115063
0.115947
0.11714
0.11842
0.114878
0.101708
0.0793689
0.0538898
0.0326132
0.0198322
0.0157507
0.0181105
0.0235726
0.0286758
0.0318069
0.0342257
0.0376717
0.041459
0.0428415
0.0397839
0.0323668
0.0219304
0.0102937
0.000158664
-0.00559571
-0.00599679
-0.00219091
0.00438712
0.0126895
0.0211139
0.0277902
0.0318507
0.0333268
0.0322104
0.0286867
0.023726
0.0183607
0.0129018
0.00747107
0.00240174
0.00239488
0.00757158
0.013399
0.0194699
0.0252697
0.0301903
0.0333258
0.0339819
0.0320482
0.0273927
0.0198178
0.0100664
0.000119483
-0.00794162
-0.0125287
-0.0121141
-0.00591361
0.00473446
0.0167502
0.0272664
0.0344161
0.0370951
0.0355353
0.0319528
0.0291621
0.0279046
0.026405
0.0231255
0.0191953
0.0177726
0.022281
0.0351448
0.0561507
0.0808998
0.101971
0.113374
0.114928
0.111879
0.109584
0.108543
0.104315
0.0918093
0.070003
0.0431269
0.0173672
-0.00367416
-0.0206391
-0.0359222
-0.0495628
-0.0581584
-0.0581588
-0.0495641
-0.035924
-0.0206409
-0.00367534
0.0173669
0.0431276
0.0700046
0.0918119
0.104319
0.108548
0.109589
0.111884
0.114933
0.113377
0.101973
0.0808994
0.0561485
0.0351414
0.022277
0.0177682
0.0191909
0.0231213
0.0264015
0.0279018
0.0291603
0.0319522
0.0355361
0.0370968
0.0344179
0.0272679
0.0167512
0.00473504
-0.00591338
-0.012114
-0.0125285
-0.00794136
0.000119795
0.0100667
0.0198181
0.0273929
0.0320483
0.0339823
0.0333268
0.0301914
0.0252705
0.0194698
0.0133982
0.00757054
0.00239441
0.00248475
0.00775401
0.0135217
0.0194236
0.0248765
0.0292575
0.0318501
0.0320482
0.0295597
0.0240362
0.0152338
0.00388357
-0.00792801
-0.0176825
-0.0232731
-0.0231196
-0.0168328
-0.00607323
0.00596546
0.0163084
0.0231162
0.0256473
0.0244869
0.0218655
0.0204068
0.020777
0.0212214
0.0200235
0.0178432
0.017477
0.0223323
0.0348506
0.0547111
0.0775393
0.0961912
0.105054
0.104315
0.0994639
0.0960805
0.0948984
0.0914599
0.08034
0.0600454
0.0342567
0.00878594
-0.0127834
-0.0308169
-0.0472152
-0.0616314
-0.0705997
-0.0706001
-0.0616324
-0.0472165
-0.030818
-0.0127838
0.00878618
0.0342575
0.0600468
0.0803422
0.0914631
0.0949025
0.0960851
0.0994685
0.104319
0.105057
0.096193
0.0775397
0.0547103
0.0348488
0.0223298
0.0174737
0.0178393
0.0200192
0.0212171
0.0207732
0.0204038
0.0218636
0.0244863
0.0256478
0.0231174
0.01631
0.00596722
-0.00607155
-0.0168315
-0.0231189
-0.023273
-0.0176825
-0.0079277
0.00388421
0.0152346
0.0240367
0.0295599
0.0320484
0.0318507
0.0292585
0.0248775
0.0194239
0.0135212
0.00775324
0.00248438
0.00259012
0.00781401
0.0130317
0.018036
0.0224658
0.0259008
0.0277901
0.0273927
0.0240362
0.0171934
0.00678088
-0.0063513
-0.0200838
-0.0316378
-0.0385203
-0.0391163
-0.0333131
-0.0228994
-0.011052
-0.000860778
0.00581882
0.00862409
0.00849972
0.00757002
0.00807389
0.0104932
0.0131216
0.0141388
0.0137736
0.0144533
0.0195065
0.0312802
0.0492863
0.0693058
0.0847761
0.0907259
0.08771
0.0812335
0.0768597
0.075523
0.0729321
0.0635611
0.045525
0.0218186
-0.00236413
-0.0236135
-0.0419882
-0.0587961
-0.0733268
-0.0822398
-0.0822401
-0.0733276
-0.0587968
-0.0419884
-0.0236131
-0.00236331
0.0218196
0.0455263
0.0635628
0.0729345
0.0755261
0.0768632
0.081237
0.0877131
0.0907283
0.0847779
0.0693071
0.049287
0.0312802
0.0195056
0.0144513
0.0137703
0.0141346
0.013117
0.0104887
0.00806984
0.00756674
0.00849747
0.00862297
0.00581889
-0.000859544
-0.0110498
-0.0228968
-0.0333109
-0.039115
-0.0385198
-0.0316376
-0.0200834
-0.00635049
0.00678193
0.0171943
0.0240367
0.0273929
0.0277902
0.0259011
0.0224664
0.0180367
0.0130322
0.00781421
0.00259016
0.00239585
0.00699002
0.0111291
0.0148027
0.0178956
0.0201574
0.0211141
0.0198178
0.0152338
0.00678088
-0.0053452
-0.0201711
-0.0356864
-0.0490583
-0.0575583
-0.0595261
-0.0549137
-0.0453419
-0.033782
-0.0234519
-0.0163508
-0.0125878
-0.010952
-0.0095335
-0.0065812
-0.00183449
0.00307518
0.00625795
0.00754208
0.00902048
0.0139483
0.0245488
0.0401617
0.0568297
0.068776
0.0718246
0.0668329
0.0590805
0.0538915
0.05236
0.0505422
0.0430704
0.0277995
0.00697791
-0.015002
-0.0350485
-0.0529155
-0.0692835
-0.0831569
-0.0915284
-0.0915286
-0.0831572
-0.0692836
-0.0529149
-0.0350473
-0.0150006
0.00697911
0.0278005
0.0430715
0.0505438
0.0523621
0.0538939
0.0590827
0.0668348
0.0718263
0.0687778
0.0568316
0.0401638
0.0245505
0.0139492
0.00901989
0.00753981
0.00625426
0.00307064
-0.00183933
-0.00658602
-0.00953801
-0.0109559
-0.0125905
-0.016352
-0.0234513
-0.0337799
-0.045339
-0.0549109
-0.059524
-0.057557
-0.0490575
-0.0356856
-0.0201701
-0.00534408
0.00678193
0.0152346
0.0198181
0.0211139
0.0201572
0.0178957
0.0148034
0.0111302
0.00699107
0.00239627
0.00174513
0.00497077
0.00768837
0.0100311
0.0118932
0.0129473
0.0126895
0.0100664
0.00388357
-0.0063513
-0.0201711
-0.0365715
-0.0537679
-0.0690073
-0.0794386
-0.0833386
-0.0805072
-0.0720997
-0.0606862
-0.0496144
-0.0411928
-0.0355147
-0.0312985
-0.0269558
-0.0212459
-0.0141018
-0.00705151
-0.00203183
0.000455177
0.00228501
0.00671403
0.0158405
0.0288054
0.0419349
0.0503397
0.0507355
0.0442218
0.0356504
0.0298942
0.0281254
0.0268855
0.0212285
0.00893973
-0.00844427
-0.0274406
-0.0454062
-0.061838
-0.0768275
-0.08922
-0.0965471
-0.0965472
-0.08922
-0.0768269
-0.0618365
-0.0454042
-0.0274388
-0.00844304
0.0089404
0.0212291
0.0268863
0.0281265
0.0298954
0.0356513
0.0442224
0.0507363
0.0503413
0.0419374
0.0288086
0.0158438
0.00671648
0.00228594
0.000454202
-0.00203457
-0.00705554
-0.0141066
-0.0212511
-0.0269612
-0.0313036
-0.0355187
-0.0411952
-0.0496148
-0.0606849
-0.0720973
-0.0805043
-0.0833358
-0.0794362
-0.0690053
-0.0537663
-0.0365702
-0.0201701
-0.00635048
0.00388422
0.0100667
0.0126895
0.0129469
0.011893
0.0100316
0.00768947
0.00497191
0.00174562
0.000837784
0.00236323
0.0037164
0.0050688
0.00605268
0.0060257
0.00438692
0.000119483
-0.00792801
-0.0200838
-0.0356864
-0.0537679
-0.0727677
-0.0900231
-0.102612
-0.108742
-0.107938
-0.100726
-0.0891578
-0.0766808
-0.0660145
-0.057473
-0.049942
-0.0422698
-0.0337164
-0.0243561
-0.015572
-0.00929089
-0.00620878
-0.00449731
-0.000820581
0.00676687
0.0171422
0.0268766
0.0319924
0.0301482
0.0226371
0.0137311
0.00767859
0.00563984
0.00474289
0.000701615
-0.00856859
-0.0221592
-0.0375446
-0.0526331
-0.0667328
-0.0794288
-0.0895549
-0.0953681
-0.095368
-0.0895544
-0.0794274
-0.0667305
-0.0526305
-0.0375425
-0.022158
-0.0085682
0.000701766
0.00474318
0.00564018
0.00767862
0.0137306
0.0226364
0.030148
0.0319937
0.0268795
0.0171464
0.00677135
-0.000816778
-0.00449497
-0.0062083
-0.00929227
-0.015575
-0.0243604
-0.0337216
-0.0422755
-0.0499477
-0.0574779
-0.066018
-0.0766826
-0.0891579
-0.100725
-0.107936
-0.108739
-0.102608
-0.0900199
-0.0727653
-0.0537663
-0.0356856
-0.0200834
-0.00792769
0.000119796
0.00438712
0.00602573
0.00605268
0.00506897
0.00371681
0.0023637
0.000837991
1.51041e-05
7.0237e-05
0.000390035
0.0011051
0.00151648
0.000648511
-0.00219135
-0.00794162
-0.0176825
-0.0316378
-0.0490583
-0.0690073
-0.0900231
-0.109423
-0.124182
-0.132446
-0.133484
-0.127254
-0.115299
-0.101069
-0.08763
-0.0756376
-0.0643649
-0.0532393
-0.0420431
-0.0309507
-0.0211318
-0.0143898
-0.0114431
-0.0103624
-0.00769698
-0.00168307
0.00626844
0.0129393
0.0152205
0.0116731
0.00369964
-0.00512008
-0.0112631
-0.0136298
-0.0144201
-0.017073
-0.0233823
-0.0329806
-0.0443037
-0.0558729
-0.0668717
-0.0764803
-0.0836708
-0.0875785
-0.0875783
-0.08367
-0.0764785
-0.0668689
-0.0558699
-0.0443014
-0.0329795
-0.0233821
-0.0170731
-0.0144202
-0.0136301
-0.0112641
-0.00512171
0.00369786
0.0116722
0.0152215
0.0129424
0.00627316
-0.00167781
-0.00769224
-0.0103589
-0.0114411
-0.0143895
-0.0211333
-0.0309537
-0.0420475
-0.0532448
-0.0643708
-0.0756432
-0.0876345
-0.101073
-0.115301
-0.127254
-0.133482
-0.132442
-0.124177
-0.109419
-0.0900199
-0.0690053
-0.0490575
-0.0316376
-0.0176825
-0.00794136
-0.00219091
0.000648946
0.00151667
0.00110492
0.000389602
6.98218e-05
1.49363e-05
-0.000447501
-0.0012168
-0.00148695
-0.00118301
-0.00116184
-0.00252344
-0.00599705
-0.0125287
-0.0232731
-0.0385203
-0.0575583
-0.0794386
-0.102612
-0.124182
-0.140905
-0.150847
-0.153157
-0.147471
-0.134964
-0.118966
-0.10268
-0.087093
-0.072018
-0.0576138
-0.0442557
-0.032216
-0.022365
-0.0162189
-0.0143303
-0.0145564
-0.0133283
-0.00906809
-0.00344162
0.000524623
0.000488413
-0.00420948
-0.0121713
-0.0205906
-0.0267209
-0.0295455
-0.0305268
-0.0321085
-0.0356518
-0.0412287
-0.0482065
-0.0557652
-0.0630538
-0.0689742
-0.072762
-0.0745099
-0.0745096
-0.0727609
-0.068972
-0.0630507
-0.055762
-0.0482042
-0.0412278
-0.0356518
-0.0321088
-0.0305272
-0.0295464
-0.0267226
-0.020593
-0.0121737
-0.0042108
0.000489189
0.000527722
-0.0034368
-0.00906261
-0.0133231
-0.014552
-0.014327
-0.0162169
-0.0223645
-0.0322173
-0.0442588
-0.0576183
-0.0720235
-0.0870989
-0.102686
-0.11897
-0.134967
-0.147472
-0.153156
-0.150844
-0.140901
-0.124177
-0.102608
-0.0794362
-0.057557
-0.0385198
-0.023273
-0.0125285
-0.00599678
-0.00252316
-0.00116183
-0.00118353
-0.00148791
-0.00121773
-0.000447889
-0.000328829
-0.000892318
-0.00105001
-0.000768147
-0.000819888
-0.00218682
-0.00559547
-0.0121141
-0.0231196
-0.0391163
-0.0595261
-0.0833386
-0.108742
-0.132446
-0.150847
-0.161871
-0.164674
-0.158876
-0.145528
-0.127798
-0.108843
-0.0898852
-0.0713233
-0.0541189
-0.039306
-0.0272921
-0.0185856
-0.014232
-0.0144052
-0.0166459
-0.01729
-0.0149704
-0.0115847
-0.00999561
-0.0118951
-0.0172924
-0.0248879
-0.0327009
-0.0387991
-0.0422768
-0.043817
-0.0447456
-0.0458497
-0.0475218
-0.050012
-0.0532138
-0.0563728
-0.0582598
-0.0584498
-0.0579659
-0.0579655
-0.0584484
-0.0582574
-0.0563696
-0.0532107
-0.0500098
-0.0475209
-0.0458497
-0.044746
-0.0438177
-0.0422781
-0.0388014
-0.0327039
-0.0248907
-0.0172938
-0.0118944
-0.00999262
-0.0115801
-0.0149651
-0.0172847
-0.0166409
-0.0144006
-0.0142282
-0.0185831
-0.0272914
-0.0393072
-0.054122
-0.071328
-0.0898909
-0.108849
-0.127804
-0.145532
-0.158879
-0.164674
-0.161869
-0.150844
-0.132442
-0.108739
-0.0833358
-0.059524
-0.039115
-0.0231189
-0.012114
-0.0055957
-0.00218722
-0.000820429
-0.000768937
-0.001051
-0.000893199
-0.000329185
0.000433635
0.00127348
0.0022035
0.00321689
0.00373503
0.00296718
0.000159246
-0.00591361
-0.0168328
-0.0333131
-0.0549137
-0.0805072
-0.107938
-0.133484
-0.153157
-0.164674
-0.167217
-0.16061
-0.146039
-0.126608
-0.105359
-0.0836718
-0.0624404
-0.0433391
-0.0280331
-0.0171137
-0.0107161
-0.00926043
-0.012337
-0.0170961
-0.0198567
-0.0195467
-0.0183073
-0.0188589
-0.0223244
-0.0281511
-0.0351837
-0.0422854
-0.048365
-0.0526619
-0.0550711
-0.0557268
-0.0547344
-0.0526974
-0.0506902
-0.0493686
-0.0482188
-0.0460236
-0.0427144
-0.0401163
-0.0401158
-0.0427129
-0.046021
-0.0482157
-0.0493657
-0.0506883
-0.0526966
-0.0547344
-0.0557271
-0.0550718
-0.0526633
-0.0483674
-0.0422885
-0.0351864
-0.0281523
-0.0223236
-0.0188561
-0.0183031
-0.0195419
-0.0198516
-0.0170908
-0.0123315
-0.00925515
-0.0107118
-0.0171109
-0.0280324
-0.0433406
-0.0624441
-0.0836771
-0.105365
-0.126614
-0.146044
-0.160613
-0.167219
-0.164674
-0.153156
-0.133482
-0.107936
-0.0805043
-0.0549109
-0.0333109
-0.0168315
-0.00591337
0.000158664
0.00296619
0.00373402
0.00321603
0.00220282
0.00127303
0.000433474
0.00157606
0.00458987
0.00740275
0.00995955
0.0118075
0.0122116
0.0102941
0.00473446
-0.00607323
-0.0228994
-0.0453419
-0.0720997
-0.100726
-0.127254
-0.147471
-0.158876
-0.16061
-0.152743
-0.136749
-0.115779
-0.0928119
-0.0693668
-0.0466949
-0.0269475
-0.0122726
-0.00346649
-0.000332136
-0.00258251
-0.00909886
-0.0166466
-0.021656
-0.0234406
-0.0243744
-0.027018
-0.031969
-0.038171
-0.0446215
-0.0510062
-0.0570797
-0.0622666
-0.0657151
-0.0663719
-0.0636088
-0.0581429
-0.0517922
-0.0459979
-0.0406253
-0.0345988
-0.0281699
-0.0237502
-0.0237497
-0.0281683
-0.0345964
-0.0406225
-0.0459954
-0.0517905
-0.0581422
-0.0636086
-0.066372
-0.0657156
-0.0622679
-0.057082
-0.051009
-0.0446237
-0.0381719
-0.031968
-0.0270155
-0.0243708
-0.0234365
-0.0216514
-0.0166414
-0.00909295
-0.00257628
-0.000326404
-0.0034621
-0.0122702
-0.0269475
-0.0466974
-0.0693713
-0.0928175
-0.115785
-0.136754
-0.152747
-0.160613
-0.158879
-0.147472
-0.127254
-0.100725
-0.0720973
-0.045339
-0.0228968
-0.00607155
0.00473504
0.0102937
0.0122107
0.0118065
0.00995881
0.0074024
0.00458981
0.00157607
0.0027002
0.00793372
0.0128738
0.0174089
0.0210556
0.0229266
0.0219301
0.0167502
0.00596546
-0.011052
-0.033782
-0.0606862
-0.0891578
-0.115299
-0.134964
-0.145528
-0.146039
-0.136749
-0.119373
-0.0971069
-0.072946
-0.0486297
-0.0256713
-0.00643794
0.0066473
0.0126
0.0118949
0.00553747
-0.00462084
-0.0150463
-0.0224133
-0.0264619
-0.0297438
-0.0346185
-0.0411798
-0.0478967
-0.0538865
-0.0596068
-0.065665
-0.0717438
-0.0763411
-0.0772738
-0.0731482
-0.0646805
-0.0543231
-0.0443137
-0.0350414
-0.0256996
-0.0167781
-0.0109836
-0.0109831
-0.0167766
-0.0256973
-0.035039
-0.0443117
-0.0543218
-0.0646798
-0.0731478
-0.0772736
-0.0763414
-0.071745
-0.0656669
-0.0596089
-0.053888
-0.047897
-0.0411787
-0.0346164
-0.029741
-0.0264586
-0.0224095
-0.0150416
-0.00461512
0.00554393
0.0119013
0.0126055
0.00665094
-0.00643664
-0.0256725
-0.048633
-0.0729507
-0.0971122
-0.119378
-0.136754
-0.146044
-0.145532
-0.134967
-0.115301
-0.0891579
-0.0606849
-0.0337799
-0.0110498
0.00596722
0.0167512
0.0219304
0.0229263
0.021055
0.0174084
0.0128735
0.00793373
0.00270025
0.00364031
0.0107904
0.0176997
0.0241695
0.0295591
0.0327238
0.0323655
0.0272664
0.0163084
-0.000860778
-0.0234519
-0.0496144
-0.0766808
-0.101069
-0.118966
-0.127798
-0.126608
-0.115779
-0.0971069
-0.0736992
-0.0486017
-0.02388
-0.00128198
0.0167952
0.027824
0.0306698
0.0260515
0.0156747
0.0020809
-0.0110164
-0.020645
-0.0269843
-0.0327215
-0.0399943
-0.0483982
-0.0559065
-0.0616672
-0.0668263
-0.0728573
-0.0798076
-0.0856656
-0.0872135
-0.0822655
-0.0713992
-0.0575672
-0.0438034
-0.0311677
-0.0192441
-0.00864726
-0.00203769
-0.00203711
-0.00864572
-0.019242
-0.0311657
-0.0438019
-0.0575661
-0.0713984
-0.0822648
-0.087213
-0.0856656
-0.0798084
-0.0728587
-0.0668277
-0.0616679
-0.0559061
-0.048397
-0.0399925
-0.0327194
-0.0269819
-0.0206421
-0.0110126
0.0020859
0.0156806
0.0260578
0.0306755
0.0278283
0.0167974
-0.00128192
-0.0238819
-0.0486052
-0.0737038
-0.0971122
-0.115785
-0.126614
-0.127804
-0.11897
-0.101073
-0.0766826
-0.0496148
-0.0234513
-0.000859546
0.01631
0.0272679
0.0323668
0.0327245
0.0295593
0.0241693
0.0176995
0.0107903
0.0036403
0.00442785
0.0131797
0.0216974
0.0296414
0.0361922
0.0400267
0.0397819
0.0344161
0.0231162
0.00581882
-0.0163508
-0.0411928
-0.0660145
-0.08763
-0.10268
-0.108843
-0.105359
-0.0928119
-0.072946
-0.0486017
-0.0228043
0.00205099
0.0240183
0.0407669
0.049754
0.0497232
0.0416183
0.0278018
0.0114248
-0.00374787
-0.0151923
-0.023547
-0.0316348
-0.041386
-0.0518959
-0.0605783
-0.0664663
-0.0712538
-0.0772584
-0.0850026
-0.0921499
-0.0946075
-0.0894193
-0.0768958
-0.0603301
-0.0435111
-0.0282727
-0.0146797
-0.0033428
0.0034658
0.00346637
-0.00334134
-0.0146779
-0.0282712
-0.04351
-0.0603293
-0.0768949
-0.0894183
-0.0946065
-0.0921495
-0.0850028
-0.077259
-0.0712543
-0.0664663
-0.0605775
-0.0518946
-0.0413845
-0.0316334
-0.0235456
-0.0151904
-0.00374517
0.0114286
0.0278066
0.0416236
0.0497283
0.0497582
0.0407697
0.0240194
0.00205037
-0.0228064
-0.0486052
-0.0729507
-0.0928175
-0.105365
-0.108849
-0.102686
-0.0876345
-0.066018
-0.0411952
-0.016352
0.00581888
0.0231174
0.0344179
0.0397839
0.0400285
0.0361934
0.0296419
0.0216975
0.0131796
0.00442782
0.00500394
0.0148729
0.0243551
0.0329513
0.0397532
0.0434577
0.0428392
0.0370951
0.0256473
0.00862409
-0.0125878
-0.0355147
-0.057473
-0.0756376
-0.087093
-0.0898852
-0.0836718
-0.0693668
-0.0486297
-0.02388
0.00205099
0.0265931
0.0477121
0.0631952
0.0704973
0.0682277
0.0574992
0.0412349
0.0230659
0.00667006
-0.00595163
-0.0158953
-0.0261166
-0.0383704
-0.051267
-0.0615939
-0.0680856
-0.0727757
-0.0787431
-0.087088
-0.0953903
-0.098933
-0.0940851
-0.0807802
-0.0624575
-0.04355
-0.026694
-0.0124778
-0.00138293
0.00500583
0.00500637
-0.00138162
-0.0124764
-0.0266929
-0.0435494
-0.0624569
-0.0807791
-0.0940837
-0.0989316
-0.0953894
-0.0870877
-0.0787431
-0.0727755
-0.0680849
-0.0615928
-0.0512658
-0.0383694
-0.026116
-0.0158948
-0.0059509
0.00667144
0.0230682
0.0412382
0.057503
0.0682316
0.0705008
0.0631979
0.0477138
0.0265936
0.00205036
-0.0238819
-0.048633
-0.0693713
-0.0836771
-0.0898909
-0.0870989
-0.0756432
-0.0574779
-0.0355187
-0.0125905
0.00862296
0.0256478
0.0370968
0.0428415
0.0434602
0.0397553
0.0329529
0.024356
0.0148732
0.00500403
0.00524381
0.0154996
0.0250995
0.0334437
0.0396702
0.0426596
0.0414572
0.0355353
0.0244869
0.00849972
-0.010952
-0.0312985
-0.049942
-0.0643649
-0.072018
-0.0713233
-0.0624404
-0.0466949
-0.0256713
-0.00128198
0.0240183
0.0477121
0.0678347
0.0823222
0.0885827
0.0850262
0.0728351
0.0553474
0.0365022
0.0197487
0.00653494
-0.0046266
-0.0167798
-0.0315358
-0.0470624
-0.0594801
-0.067048
-0.0719107
-0.0777924
-0.0864639
-0.0956949
-0.100452
-0.0965707
-0.0835152
-0.0646451
-0.0448533
-0.027521
-0.0137559
-0.00381515
0.00160937
0.00160986
-0.00381402
-0.0137548
-0.0275204
-0.0448531
-0.0646445
-0.083514
-0.0965689
-0.10045
-0.0956936
-0.0864631
-0.0777918
-0.0719101
-0.067047
-0.0594791
-0.0470616
-0.0315355
-0.01678
-0.00462711
0.00653452
0.0197488
0.036503
0.0553489
0.0728372
0.0850286
0.088585
0.0823244
0.0678367
0.0477137
0.0240194
-0.00128193
-0.0256725
-0.0466974
-0.0624441
-0.071328
-0.0720235
-0.0643708
-0.0499477
-0.0313036
-0.0109559
0.00849746
0.0244863
0.0355361
0.041459
0.042662
0.0396728
0.0334461
0.0251013
0.0155006
0.00524411
0.00514234
0.0150914
0.0241384
0.0317011
0.0370562
0.0392815
0.037671
0.0319528
0.0218655
0.00757002
-0.0095335
-0.0269558
-0.0422698
-0.0532393
-0.0576138
-0.0541189
-0.0433391
-0.0269475
-0.00643794
0.0167952
0.0407669
0.0631952
0.0823222
0.09623
0.102195
0.0983477
0.0858544
0.0683303
0.0498559
0.0335367
0.0202835
0.00831571
-0.0054465
-0.0225105
-0.040662
-0.0553526
-0.0642394
-0.0693781
-0.0750095
-0.0836386
-0.0934828
-0.0995082
-0.0971917
-0.0854576
-0.0673482
-0.0479659
-0.0312908
-0.0189019
-0.0107968
-0.00670785
-0.00670743
-0.0107959
-0.0189012
-0.0312906
-0.0479659
-0.0673478
-0.0854564
-0.09719
-0.0995064
-0.0934813
-0.0836376
-0.0750087
-0.0693773
-0.0642385
-0.0553518
-0.0406617
-0.0225109
-0.00544753
0.00831429
0.0202821
0.0335356
0.0498553
0.0683303
0.0858548
0.0983484
0.102196
0.0962316
0.0823244
0.0631979
0.0407697
0.0167974
-0.00643665
-0.0269475
-0.0433406
-0.054122
-0.0576183
-0.0532448
-0.0422755
-0.0269612
-0.00953801
0.00756674
0.0218636
0.0319522
0.0376717
0.0392832
0.0370586
0.0317037
0.0241407
0.0150928
0.00514283
0.00479784
0.0140037
0.0222272
0.0290155
0.0337968
0.0357349
0.0342262
0.0291621
0.0204068
0.00807389
-0.0065812
-0.0212459
-0.0337164
-0.0420431
-0.0442557
-0.039306
-0.0280331
-0.0122726
0.0066473
0.027824
0.049754
0.0704973
0.0885827
0.102195
0.108386
0.104964
0.0930413
0.0764118
0.059177
0.0440424
0.0314178
0.019292
0.00455735
-0.0142456
-0.0345985
-0.0513287
-0.061424
-0.0666737
-0.0716741
-0.0796676
-0.0895381
-0.0965746
-0.0961163
-0.0865443
-0.0703641
-0.0525789
-0.0375257
-0.0271528
-0.0212268
-0.0186113
-0.018611
-0.0212262
-0.0271524
-0.0375258
-0.0525793
-0.070364
-0.0865433
-0.0961147
-0.096573
-0.0895369
-0.0796668
-0.0716735
-0.066673
-0.0614234
-0.0513285
-0.0345989
-0.0142466
0.00455568
0.01929
0.0314157
0.0440405
0.0591754
0.0764104
0.0930402
0.104964
0.108386
0.102196
0.088585
0.0705008
0.0497582
0.0278283
0.00665093
-0.0122702
-0.0280324
-0.0393072
-0.0442588
-0.0420475
-0.0337216
-0.0212511
-0.00658602
0.00806984
0.0204038
0.0291603
0.0342257
0.0357357
0.0337985
0.0290177
0.0222294
0.0140053
0.00479839
0.0041935
0.0122394
0.0194817
0.0256547
0.0303034
0.0325743
0.0318084
0.0279046
0.020777
0.0104932
-0.00183449
-0.0141018
-0.0243561
-0.0309507
-0.032216
-0.0272921
-0.0171137
-0.00346649
0.0126
0.0306698
0.0497232
0.0682277
0.0850262
0.0983477
0.104964
0.102354
0.0915389
0.0764067
0.0610151
0.0476843
0.0363768
0.0248755
0.0100188
-0.00967211
-0.0314774
-0.0496901
-0.0606021
-0.0655635
-0.0693216
-0.0757906
-0.084691
-0.0919632
-0.0931037
-0.0860513
-0.0726175
-0.0573709
-0.0446682
-0.0366533
-0.0329253
-0.0317007
-0.0317006
-0.0329251
-0.0366535
-0.0446689
-0.0573717
-0.0726177
-0.0860507
-0.0931026
-0.0919621
-0.0846903
-0.0757902
-0.0693215
-0.0655635
-0.0606022
-0.0496906
-0.0314785
-0.0096737
0.0100168
0.0248732
0.0363744
0.0476819
0.0610128
0.0764045
0.0915369
0.102353
0.104964
0.0983484
0.0850286
0.0682316
0.0497283
0.0306755
0.0126055
-0.0034621
-0.017111
-0.0272915
-0.0322173
-0.0309537
-0.0243604
-0.0141066
-0.00183933
0.0104887
0.0207732
0.0279018
0.0318069
0.032574
0.0303039
0.0256557
0.019483
0.0122404
0.0041939
0.00319501
0.00941461
0.0152742
0.0206863
0.0252886
0.0282159
0.0286784
0.026405
0.0212214
0.0131216
0.00307518
-0.00705151
-0.015572
-0.0211318
-0.022365
-0.0185856
-0.0107161
-0.000332136
0.0118949
0.0260515
0.0416183
0.0574992
0.0728351
0.0858544
0.0930413
0.0915389
0.0822006
0.0688928
0.0555982
0.0443313
0.0347144
0.0243867
0.0101384
-0.00957925
-0.0319661
-0.05092
-0.0620707
-0.0661997
-0.0679901
-0.0718909
-0.0785399
-0.0848169
-0.0867208
-0.0819681
-0.0716297
-0.0595255
-0.0496301
-0.0440385
-0.042254
-0.0421579
-0.042158
-0.0422544
-0.0440394
-0.0496315
-0.0595269
-0.0716305
-0.0819682
-0.0867204
-0.0848165
-0.0785399
-0.0718912
-0.0679907
-0.0662003
-0.0620715
-0.0509211
-0.0319676
-0.00958108
0.0101363
0.0243844
0.0347121
0.044329
0.0555958
0.0688902
0.0821981
0.0915369
0.0930402
0.0858548
0.0728372
0.057503
0.0416236
0.0260578
0.0119013
-0.000326408
-0.0107118
-0.0185831
-0.0223645
-0.0211333
-0.015575
-0.00705554
0.00307064
0.013117
0.0212171
0.0264015
0.0286758
0.0282142
0.0252875
0.0206857
0.015274
0.00941468
0.00319508
0.00186002
0.00566182
0.00969198
0.0139835
0.0182695
0.0217689
0.0235764
0.0231255
0.0200235
0.0141388
0.00625795
-0.00203183
-0.00929089
-0.0143898
-0.0162189
-0.014232
-0.00926043
-0.00258251
0.00553747
0.0156747
0.0278018
0.0412349
0.0553474
0.0683303
0.0764118
0.0764067
0.0688928
0.0575744
0.0463265
0.0369697
0.0289585
0.0199325
0.00671671
-0.0123023
-0.0343509
-0.0531204
-0.0637226
-0.0663548
-0.0654614
-0.0658236
-0.0689443
-0.0728128
-0.0742514
-0.0710572
-0.0636373
-0.0548258
-0.0478142
-0.0443798
-0.0440109
-0.0446172
-0.0446176
-0.044012
-0.0443816
-0.0478163
-0.0548277
-0.0636387
-0.071058
-0.0742519
-0.0728134
-0.0689452
-0.0658247
-0.0654626
-0.066356
-0.0637238
-0.0531218
-0.0343524
-0.0123039
0.006715
0.0199308
0.0289567
0.0369677
0.0463242
0.0575719
0.0688902
0.0764045
0.0764104
0.0683303
0.0553489
0.0412382