/*--------------------------------*- C++ -*----------------------------------*\
  =========                 |
  \\      /  F ield         | OpenFOAM: The Open Source CFD Toolbox
   \\    /   O peration     | Website:  https://openfoam.org
    \\  /    A nd           | Version:  10
     \\/     M anipulation  |
\*---------------------------------------------------------------------------*/
FoamFile
{
    format      ascii;
    class       volScalarField;
    location    "69";
    object      h_0;
}
// * * * * * * * * * * * * * * * * * * * * * * * * * * * * * * * * * * * * * //

dimensions      [0 1 0 0 0 0 0];

internalField   nonuniform List<scalar> 
10000
(
0.000109301
0.000453441
0.00100968
0.00161065
0.00207764
0.00233371
0.00239175
0.00239297
0.00249043
0.00259758
0.00239868
0.00174203
0.000831122
6.02124e-06
-0.000459553
-0.000344834
0.000412227
0.00154789
0.00266823
0.00361227
0.00440899
0.00499053
0.00522737
0.00511789
0.00476496
0.00415467
0.00315723
0.00183356
0.000614071
1.62852e-05
0.000362843
0.00181141
0.00431564
0.00742947
0.0103713
0.0124648
0.0135579
0.0140292
0.0142617
0.0141719
0.0133311
0.0114081
0.00853645
0.00538954
0.00273318
0.000917313
-0.000240288
-0.00118511
-0.00210281
-0.00272372
-0.00272377
-0.00210296
-0.00118538
-0.000240663
0.000916922
0.00273289
0.00538947
0.00853665
0.0114085
0.0133318
0.0141727
0.0142625
0.0140299
0.0135584
0.0124651
0.0103713
0.00742917
0.00431507
0.00181063
0.000361932
1.53883e-05
0.000613367
0.00183321
0.00315729
0.00415507
0.00476551
0.00511839
0.00522768
0.00499063
0.00440897
0.00361226
0.00266828
0.00154791
0.000412072
-0.000345183
-0.000459937
5.85077e-06
0.000831322
0.00174251
0.0023991
0.00259763
0.00249007
0.00239251
0.00239157
0.00233394
0.00207803
0.00161082
0.00100947
0.00045305
0.000109107
0.000453441
0.00163861
0.00326137
0.00490881
0.00622411
0.00707798
0.00744334
0.00756404
0.00776697
0.00783401
0.00700086
0.00496843
0.00235188
5.01705e-05
-0.00124848
-0.000937521
0.00121244
0.00451003
0.00784281
0.010709
0.0131217
0.0148282
0.0154457
0.015016
0.0139064
0.0121265
0.00930519
0.00558509
0.00216466
0.000509814
0.00155787
0.00579998
0.0131387
0.0222851
0.0309341
0.0370697
0.0402275
0.0415278
0.0421296
0.0418258
0.0393711
0.0337744
0.0253952
0.0161768
0.00835037
0.00294382
-0.000566748
-0.00346589
-0.00626828
-0.00815498
-0.00815514
-0.00626879
-0.00346675
-0.000567861
0.00294271
0.00834961
0.0161767
0.0253958
0.0337757
0.039373
0.0418282
0.042132
0.04153
0.0402291
0.0370706
0.030934
0.0222841
0.0131369
0.00579768
0.00155529
0.000507302
0.00216265
0.00558402
0.00930524
0.0121275
0.0139079
0.0150175
0.0154467
0.0148286
0.0131217
0.0107089
0.00784282
0.00450998
0.00121201
-0.000938389
-0.00124941
4.97456e-05
0.00235233
0.00496956
0.00700192
0.00783422
0.00776623
0.00756302
0.00744289
0.0070784
0.00622493
0.00490924
0.00326102
0.00163784
0.000453051
0.00100968
0.00326137
0.00578388
0.0081194
0.0101046
0.0117571
0.0128632
0.013383
0.0135329
0.0130579
0.0111515
0.00770027
0.00371732
0.000372327
-0.00153146
-0.00112173
0.00210646
0.00727941
0.0127352
0.017574
0.0216029
0.0242766
0.0250064
0.0240165
0.0220779
0.0193135
0.0151137
0.00958298
0.00447284
0.00202543
0.00375427
0.0105239
0.0222433
0.0368597
0.0506396
0.0603024
0.0651058
0.0669075
0.0676622
0.0671205
0.0632876
0.0544974
0.0412266
0.0265039
0.0138704
0.00499089
-0.00093513
-0.00590141
-0.0106586
-0.0138362
-0.0138365
-0.0106595
-0.00590285
-0.000936895
0.00498923
0.0138693
0.0265037
0.0412275
0.0544993
0.0632905
0.0671241
0.0676662
0.0669113
0.0651087
0.0603039
0.0506395
0.036858
0.0222405
0.0105203
0.00375035
0.00202165
0.00446976
0.00958118
0.0151134
0.0193147
0.02208
0.0240188
0.0250082
0.0242775
0.021603
0.0175737
0.012735
0.00727907
0.00210579
-0.00112272
-0.00153242
0.000371882
0.00371771
0.00770135
0.0111526
0.0130584
0.0135325
0.0133822
0.0128626
0.0117572
0.0101051
0.0081198
0.00578385
0.00326102
0.00100947
0.00161065
0.00490881
0.0081194
0.0108999
0.0134929
0.0161403
0.0183214
0.0194472
0.019428
0.0180637
0.0148397
0.0100689
0.00509729
0.00110259
-0.00123318
-0.000863658
0.00308673
0.00980043
0.0172359
0.0240139
0.029522
0.032848
0.033322
0.0315489
0.0288386
0.0254636
0.0205119
0.0138779
0.00762915
0.00463705
0.00699535
0.0159705
0.0314665
0.0506962
0.0686271
0.0808885
0.0866011
0.0884051
0.0890678
0.0883581
0.0835673
0.0722992
0.0550002
0.0355513
0.0186164
0.00645925
-0.00190204
-0.00899943
-0.0157154
-0.0201598
-0.0201602
-0.0157166
-0.00900129
-0.00190429
0.00645718
0.0186151
0.0355511
0.0550014
0.0723017
0.0835711
0.0883627
0.0890729
0.0884099
0.086605
0.0808906
0.0686272
0.0506943
0.0314629
0.0159659
0.00699037
0.00463227
0.00762521
0.0138755
0.0205113
0.0254646
0.0288408
0.0315516
0.0333244
0.0328496
0.0295226
0.0240138
0.0172353
0.0097997
0.00308588
-0.000864446
-0.0012337
0.0011024
0.00509745
0.0100694
0.0148404
0.0180644
0.0194283
0.0194471
0.0183211
0.0161398
0.0134925
0.0108999
0.0081198
0.00490924
0.00161082
0.00207764
0.00622411
0.0101046
0.0134929
0.0168747
0.0205534
0.0236976
0.0252509
0.0248817
0.0225008
0.0179543
0.0119674
0.00612265
0.0015451
-0.00120197
-0.000925866
0.00358252
0.0116233
0.0208604
0.0293867
0.0360598
0.0396365
0.0395337
0.0368925
0.0336179
0.0301238
0.0251417
0.018209
0.0114715
0.00825979
0.0112213
0.0220165
0.0405078
0.0632268
0.0840409
0.0977374
0.103471
0.104693
0.104974
0.104165
0.0989059
0.0860283
0.0657834
0.0426148
0.0220605
0.00691948
-0.00385754
-0.0131262
-0.0217725
-0.0274326
-0.027433
-0.0217738
-0.0131283
-0.00386004
0.00691719
0.0220591
0.0426147
0.0657849
0.0860312
0.0989102
0.104171
0.10498
0.104699
0.103476
0.0977401
0.0840414
0.0632249
0.040504
0.0220115
0.0112157
0.00825432
0.011467
0.018206
0.0251406
0.0301243
0.0336195
0.0368949
0.0395363
0.0396386
0.036061
0.0293869
0.0208598
0.0116222
0.00358151
-0.000926416
-0.00120196
0.00154529
0.00612265
0.0119673
0.0179544
0.0225014
0.0248826
0.0252516
0.0236977
0.0205527
0.0168737
0.0134925
0.0101051
0.00622493
0.00207802
0.00233371
0.00707798
0.0117571
0.0161403
0.0205534
0.0250723
0.0286746
0.030189
0.0292819
0.0259612
0.0202532
0.0130715
0.00615265
0.000730139
-0.00252504
-0.00227293
0.0028188
0.0120228
0.0227247
0.0325462
0.0398911
0.0433394
0.0425251
0.0391288
0.0355823
0.0324407
0.028135
0.0217909
0.0153799
0.0124169
0.0159716
0.0280582
0.0485209
0.0733794
0.0956981
0.109685
0.11463
0.114727
0.114295
0.113371
0.108086
0.0945296
0.0725961
0.046942
0.0236508
0.00594479
-0.0071716
-0.0186247
-0.0291473
-0.0359513
-0.0359518
-0.0291488
-0.0186269
-0.00717412
0.0059426
0.0236496
0.0469421
0.0725977
0.0945327
0.10809
0.113376
0.114301
0.114733
0.114635
0.109688
0.095699
0.0733778
0.0485173
0.0280531
0.0159659
0.0124112
0.0153751
0.0217875
0.0281332
0.0324403
0.0355831
0.0391304
0.0425275
0.0433419
0.039893
0.032547
0.0227244
0.0120218
0.00281781
-0.00227335
-0.00252476
0.000730582
0.0061527
0.0130712
0.020253
0.0259615
0.0292828
0.0301901
0.0286751
0.025072
0.0205527
0.0161398
0.0117572
0.0070784
0.00233393
0.00239175
0.00744334
0.0128632
0.0183214
0.0236976
0.0286746
0.0322144
0.0333547
0.0319165
0.0279013
0.0212678
0.0128778
0.00458244
-0.0020394
-0.00593303
-0.00562859
4.65318e-05
0.0101255
0.0217392
0.0321963
0.0396573
0.0427399
0.0413547
0.0375663
0.0341401
0.0317619
0.0287036
0.0237166
0.0183825
0.0160991
0.0201739
0.0329071
0.0541715
0.0797054
0.102128
0.115347
0.118844
0.117411
0.116001
0.114923
0.109981
0.0966109
0.0742332
0.0473841
0.0223463
0.00262763
-0.0126054
-0.0261075
-0.0383241
-0.0461215
-0.046122
-0.0383255
-0.0261096
-0.0126076
0.00262584
0.0223454
0.0473845
0.0742349
0.0966138
0.109985
0.114928
0.116007
0.117417
0.118849
0.11535
0.102129
0.0797043
0.0541684
0.0329026
0.0201688
0.0160939
0.0183777
0.0237128
0.028701
0.0317603
0.0341396
0.0375669
0.0413564
0.0427422
0.0396593
0.0321975
0.0217395
0.0101251
4.59493e-05
-0.00562884
-0.00593276
-0.00203894
0.00458265
0.0128777
0.0212677
0.0279015
0.0319171
0.0333556
0.0322153
0.0286751
0.0236977
0.0183211
0.0128626
0.00744289
0.00239157
0.00239297
0.00756404
0.013383
0.0194472
0.0252509
0.030189
0.0333547
0.0340555
0.0321785
0.0275792
0.0200498
0.0103301
0.00038852
-0.00771352
-0.0123863
-0.0120751
-0.00597014
0.00460359
0.0165837
0.0271172
0.0343179
0.0370391
0.0354989
0.0319356
0.0291824
0.027983
0.0265715
0.0234143
0.0196064
0.0182429
0.0227195
0.0355078
0.0564775
0.0812677
0.102424
0.113885
0.11541
0.11222
0.10972
0.108494
0.104176
0.0916821
0.0699243
0.0430678
0.0172901
-0.0037626
-0.0206869
-0.0358769
-0.0494131
-0.0579414
-0.0579419
-0.0494144
-0.0358787
-0.0206887
-0.0037638
0.0172898
0.0430684
0.0699258
0.0916846
0.10418
0.108499
0.109726
0.112226
0.115414
0.113889
0.102426
0.0812673
0.0564753
0.0355045
0.0227155
0.0182386
0.0196019
0.0234101
0.0265679
0.0279801
0.0291805
0.031935
0.0354997
0.0370408
0.0343197
0.0271187
0.0165847
0.00460419
-0.00596989
-0.012075
-0.0123861
-0.00771325
0.000388833
0.0103305
0.0200501
0.0275793
0.0321786
0.0340559
0.0333556
0.0301901
0.0252516
0.0194471
0.0133822
0.00756301
0.00239251
0.00249043
0.00776697
0.0135329
0.019428
0.0248817
0.0292819
0.0319165
0.0321785
0.029766
0.0243123
0.0155599
0.00423694
-0.00757535
-0.0173706
-0.0230442
-0.0229985
-0.016822
-0.00615504
0.00583402
0.0161892
0.0230553
0.0256492
0.0245349
0.0219547
0.0205497
0.0209941
0.0215408
0.0204688
0.0183997
0.0180696
0.022863
0.0352741
0.0550702
0.0779214
0.0966553
0.105586
0.104832
0.0998603
0.0962912
0.094943
0.0914293
0.0803285
0.060082
0.0343041
0.00879705
-0.0128103
-0.0308319
-0.0471607
-0.0614872
-0.0703941
-0.0703945
-0.0614882
-0.047162
-0.030833
-0.0128108
0.00879726
0.034305
0.0600834
0.0803306
0.0914324
0.094947
0.0962959
0.099865
0.104836
0.105589
0.0966571
0.0779219
0.0550695
0.0352724
0.0228604
0.0180663
0.0183958
0.0204645
0.0215365
0.0209903
0.0205467
0.0219528
0.0245343
0.0256496
0.0230564
0.0161907
0.00583578
-0.00615334
-0.0168208
-0.0229978
-0.023044
-0.0173705
-0.00757505
0.00423758
0.0155607
0.0243127
0.0297661
0.0321786
0.0319171
0.0292828
0.0248826
0.0194283
0.0135325
0.00776623
0.00249007
0.00259758
0.00783401
0.0130579
0.0180637
0.0225008
0.0259612
0.0279013
0.0275792
0.0243123
0.0175544
0.00720379
-0.00589789
-0.0196343
-0.0312321
-0.0382012
-0.0389142
-0.0332359
-0.0229287
-0.0111408
-0.000941515
0.00580236
0.00868954
0.00863675
0.00776832
0.00833918
0.0108453
0.0135858
0.0147264
0.0144547
0.0151426
0.0201014
0.0317348
0.0496458
0.0696671
0.085215
0.0912432
0.0882318
0.081659
0.0771262
0.0756468
0.0729961
0.0636497
0.0456597
0.0219558
-0.00227998
-0.0235943
-0.0419903
-0.0587606
-0.0732251
-0.0820882
-0.0820885
-0.0732258
-0.0587613
-0.0419905
-0.023594
-0.00227918
0.0219569
0.0456609
0.0636514
0.0729985
0.0756499
0.0771298
0.0816625
0.0882348
0.0912457
0.0852168
0.0696684
0.0496465
0.0317349
0.0201005
0.0151406
0.0144515
0.0147222
0.0135812
0.0108408
0.00833511
0.00776502
0.00863445
0.00868837
0.00580239
-0.000940308
-0.0111387
-0.0229262
-0.0332337
-0.0389128
-0.0382007
-0.0312319
-0.0196339
-0.00589708
0.00720485
0.0175553
0.0243127
0.0275793
0.0279015
0.0259615
0.0225014
0.0180644
0.0130584
0.00783422
0.00259763
0.00239868
0.00700086
0.0111515
0.0148397
0.0179543
0.0202532
0.0212678
0.0200498
0.0155599
0.00720379
-0.00484362
-0.0196276
-0.0351458
-0.0485683
-0.0571674
-0.0592685
-0.0547948
-0.0453352
-0.0338346
-0.0234944
-0.0163221
-0.0124598
-0.0107292
-0.00923128
-0.00620151
-0.00136045
0.00366304
0.0069576
0.00831084
0.00976741
0.0145707
0.0250005
0.0404881
0.0571352
0.0691525
0.0722895
0.0673236
0.0595038
0.0541867
0.0525377
0.0506739
0.0432284
0.0279983
0.00717108
-0.0148759
-0.0350119
-0.0529346
-0.069302
-0.0831391
-0.091477
-0.0914772
-0.0831395
-0.069302
-0.0529339
-0.0350107
-0.0148745
0.00717226
0.0279992
0.0432294
0.0506755
0.0525398
0.054189
0.059506
0.0673254
0.0722912
0.0691543
0.0571372
0.0404902
0.0250023
0.0145716
0.00976685
0.0083086
0.00695393
0.00365852
-0.00136529
-0.00620634
-0.00923582
-0.0107331
-0.0124626
-0.0163234
-0.0234939
-0.0338326
-0.0453324
-0.054792
-0.0592664
-0.0571661
-0.0485675
-0.035145
-0.0196266
-0.00484248
0.00720485
0.0155607
0.0200501
0.0212677
0.020253
0.0179544
0.0148404
0.0111526
0.00700192
0.0023991
0.00174203
0.00496843
0.00770027
0.0100689
0.0119674
0.0130715
0.0128778
0.0103301
0.00423694
-0.00589789
-0.0196276
-0.0359766
-0.0531759
-0.0684758
-0.0790238
-0.0830761
-0.080394
-0.0720953
-0.06073
-0.0496379
-0.0411353
-0.0353419
-0.0310109
-0.0265742
-0.0207798
-0.013539
-0.00638024
-0.00126749
0.00126027
0.00304025
0.00732181
0.0162563
0.0290727
0.0421621
0.0506306
0.0511216
0.0446525
0.0360424
0.0301908
0.028332
0.0270595
0.0214275
0.0091711
-0.00822768
-0.027303
-0.0453791
-0.0618987
-0.0769255
-0.0893148
-0.0966271
-0.0966271
-0.0893148
-0.0769249
-0.0618972
-0.0453771
-0.0273012
-0.00822646
0.00917177
0.0214281
0.0270604
0.0283331
0.030192
0.0360432
0.0446531
0.0511223
0.0506322
0.0421646
0.0290759
0.0162595
0.00732429
0.00304122
0.00125934
-0.0012702
-0.00638424
-0.0135438
-0.020785
-0.0265796
-0.031016
-0.0353459
-0.0411378
-0.0496384
-0.0607287
-0.0720929
-0.0803911
-0.0830733
-0.0790214
-0.0684738
-0.0531743
-0.0359753
-0.0196266
-0.00589708
0.00423758
0.0103305
0.0128777
0.0130712
0.0119673
0.0100694
0.00770136
0.00496956
0.00174251
0.000831122
0.00235188
0.00371732
0.00509729
0.00612265
0.00615265
0.00458244
0.00038852
-0.00757535
-0.0196343
-0.0351458
-0.0531759
-0.072183
-0.0895082
-0.102227
-0.108524
-0.107875
-0.100764
-0.0892281
-0.0767178
-0.0659607
-0.0572922
-0.0496339
-0.0418598
-0.0332195
-0.0237634
-0.0148795
-0.0085268
-0.00543259
-0.00379457
-0.000278487
0.00710826
0.0173241
0.0270059
0.0321786
0.030432
0.0229797
0.0140616
0.00794804
0.00584934
0.00493424
0.000914865
-0.00833404
-0.0219492
-0.0374223
-0.0526363
-0.0668508
-0.0796197
-0.0897765
-0.0955953
-0.0955953
-0.089776
-0.0796184
-0.0668486
-0.0526338
-0.0374202
-0.0219481
-0.00833364
0.000915031
0.00493454
0.00584969
0.00794806
0.0140611
0.022979
0.0304318
0.0321798
0.0270088
0.0173282
0.00711275
-0.000274663
-0.00379219
-0.00543206
-0.00852814
-0.0148825
-0.0237676
-0.0332247
-0.0418655
-0.0496397
-0.0572972
-0.0659643
-0.0767196
-0.0892282
-0.100762
-0.107873
-0.108521
-0.102224
-0.089505
-0.0721805
-0.0531743
-0.035145
-0.0196339
-0.00757505
0.000388835
0.00458266
0.0061527
0.00612266
0.00509745
0.00371771
0.00235233
0.000831322
6.02124e-06
5.01705e-05
0.000372327
0.00110259
0.0015451
0.000730139
-0.0020394
-0.00771352
-0.0173706
-0.0312321
-0.0485683
-0.0684758
-0.0895082
-0.108984
-0.123877
-0.132311
-0.133504
-0.127364
-0.115427
-0.101153
-0.0876152
-0.075489
-0.0640831
-0.0528536
-0.0415711
-0.0303854
-0.0204767
-0.0136847
-0.0107528
-0.00976375
-0.0072624
-0.00144539
0.0063471
0.0129602
0.0152921
0.0118411
0.00393638
-0.00487097
-0.0110408
-0.0134366
-0.0142317
-0.0168687
-0.0231708
-0.0328036
-0.0442187
-0.0559202
-0.0670526
-0.0767652
-0.0840192
-0.087954
-0.0879538
-0.0840183
-0.0767633
-0.0670499
-0.0559172
-0.0442165
-0.0328025
-0.0231706
-0.0168688
-0.0142318
-0.013437
-0.0110418
-0.00487262
0.00393458
0.0118402
0.015293
0.0129633
0.0063518
-0.00144013
-0.00725764
-0.00976019
-0.0107508
-0.0136844
-0.0204781
-0.0303885
-0.0415756
-0.0528591
-0.064089
-0.0754946
-0.0876198
-0.101156
-0.115429
-0.127364
-0.133502
-0.132308
-0.123873
-0.108979
-0.089505
-0.0684738
-0.0485675
-0.0312319
-0.0173705
-0.00771325
-0.00203894
0.000730586
0.00154529
0.0011024
0.000371882
4.97451e-05
5.84962e-06
-0.000459553
-0.00124848
-0.00153146
-0.00123318
-0.00120197
-0.00252504
-0.00593303
-0.0123863
-0.0230442
-0.0382012
-0.0571674
-0.0790238
-0.102227
-0.123877
-0.140731
-0.150835
-0.153289
-0.147681
-0.135178
-0.119124
-0.102732
-0.0870053
-0.0717937
-0.0572857
-0.0438431
-0.0317135
-0.0217831
-0.0156073
-0.013756
-0.0140846
-0.0130139
-0.00893496
-0.00345567
0.000455359
0.00046528
-0.00414068
-0.0120289
-0.0204157
-0.0265413
-0.0293661
-0.0303408
-0.0319163
-0.0354701
-0.041093
-0.0481634
-0.0558527
-0.0632836
-0.069331
-0.0732109
-0.0750061
-0.0750058
-0.0732097
-0.0693287
-0.0632805
-0.0558496
-0.0481612
-0.041092
-0.03547
-0.0319166
-0.0303413
-0.029367
-0.026543
-0.0204182
-0.0120314
-0.00414203
0.000466028
0.000458431
-0.00345087
-0.00892949
-0.0130086
-0.0140801
-0.0137526
-0.0156052
-0.0217826
-0.0317148
-0.0438462
-0.0572902
-0.0717992
-0.0870111
-0.102738
-0.119128
-0.135181
-0.147682
-0.153289
-0.150833
-0.140727
-0.123873
-0.102224
-0.0790214
-0.0571661
-0.0382007
-0.023044
-0.0123861
-0.00593275
-0.00252476
-0.00120196
-0.0012337
-0.00153242
-0.00124941
-0.000459939
-0.000344834
-0.000937521
-0.00112173
-0.000863658
-0.000925866
-0.00227293
-0.00562859
-0.0120751
-0.0229985
-0.0389142
-0.0592685
-0.0830761
-0.108524
-0.132311
-0.150835
-0.162008
-0.164938
-0.159202
-0.145844
-0.128049
-0.108981
-0.0898805
-0.0711819
-0.0538764
-0.0389825
-0.0268834
-0.018107
-0.0137389
-0.0139633
-0.0163072
-0.0170907
-0.014924
-0.0116606
-0.0101146
-0.0119694
-0.0172829
-0.0248068
-0.0325737
-0.0386394
-0.0420891
-0.0436115
-0.0445446
-0.0456794
-0.0474107
-0.049992
-0.0533148
-0.0566136
-0.0586398
-0.0589433
-0.0585238
-0.0585234
-0.0589419
-0.0586374
-0.0566104
-0.0533117
-0.0499899
-0.0474098
-0.0456794
-0.0445449
-0.0436122
-0.0420904
-0.0386416
-0.0325766
-0.0248096
-0.0172844
-0.0119687
-0.0101116
-0.0116561
-0.0149187
-0.0170854
-0.0163021
-0.0139587
-0.0137351
-0.0181045
-0.0268826
-0.0389837
-0.0538795
-0.0711866
-0.0898863
-0.108987
-0.128054
-0.145848
-0.159204
-0.164938
-0.162007
-0.150833
-0.132308
-0.108521
-0.0830733
-0.0592664
-0.0389128
-0.0229978
-0.0120749
-0.00562883
-0.00227334
-0.000926416
-0.000864448
-0.00112272
-0.000938391
-0.000345185
0.000412227
0.00121244
0.00210646
0.00308673
0.00358252
0.0028188
4.65318e-05
-0.00597014
-0.016822
-0.0332359
-0.0547948
-0.080394
-0.107875
-0.133504
-0.153289
-0.164938
-0.16759
-0.161031
-0.146443
-0.126946
-0.105589
-0.0837633
-0.0624032
-0.043209
-0.0278285
-0.0168295
-0.0103693
-0.0089069
-0.0120387
-0.0168923
-0.0197656
-0.0195705
-0.0184181
-0.0189926
-0.0224129
-0.0281678
-0.0351377
-0.0421862
-0.0482094
-0.0524505
-0.0548291
-0.0554988
-0.0545579
-0.0525941
-0.0506743
-0.0494569
-0.0484336
-0.0463788
-0.0431964
-0.0406756
-0.0406751
-0.0431949
-0.0463763
-0.0484305
-0.049454
-0.0506724
-0.0525933
-0.0545578
-0.0554991
-0.0548297
-0.052452
-0.0482119
-0.0421893
-0.0351404
-0.028169
-0.0224121
-0.0189898
-0.018414
-0.0195656
-0.0197606
-0.016887
-0.0120332
-0.0089016
-0.0103649
-0.0168268
-0.0278278
-0.0432105
-0.0624068
-0.0837686
-0.105595
-0.126952
-0.146448
-0.161034
-0.167592
-0.164938
-0.153289
-0.133502
-0.107873
-0.0803911
-0.054792
-0.0332337
-0.0168208
-0.00596989
4.59496e-05
0.00281781
0.00358151
0.00308588
0.00210579
0.001212
0.000412069
0.00154789
0.00451003
0.00727941
0.00980043
0.0116233
0.0120228
0.0101255
0.00460359
-0.00615504
-0.0229287
-0.0453352
-0.0720953
-0.100764
-0.127364
-0.147681
-0.159202
-0.161031
-0.153208
-0.137201
-0.116176
-0.093115
-0.0695495
-0.0467653
-0.0269375
-0.0121963
-0.00331654
-0.000124363
-0.00237073
-0.00894028
-0.0165697
-0.0216632
-0.0235223
-0.0245044
-0.0271476
-0.0320523
-0.0381971
-0.0445989
-0.0509296
-0.0569282
-0.0620344
-0.0654394
-0.0661184
-0.063427
-0.0580482
-0.0517793
-0.0460666
-0.0407977
-0.0349023
-0.0286045
-0.0242701
-0.0242696
-0.0286029
-0.0348998
-0.0407948
-0.0460641
-0.0517776
-0.0580475
-0.0634268
-0.0661185
-0.0654399
-0.0620358
-0.0569305
-0.0509323
-0.0446012
-0.038198
-0.0320514
-0.0271451
-0.0245009
-0.0235182
-0.0216586
-0.0165645
-0.00893438
-0.00236449
-0.000118612
-0.00331212
-0.0121939
-0.0269375
-0.0467678
-0.069554
-0.0931206
-0.116181
-0.137206
-0.153212
-0.161034
-0.159204
-0.147682
-0.127364
-0.100762
-0.0720929
-0.0453324
-0.0229262
-0.00615334
0.00460419
0.0101251
0.0120218
0.0116222
0.0097997
0.00727907
0.00450998
0.00154791
0.00266823
0.00784281
0.0127352
0.0172359
0.0208604
0.0227247
0.0217392
0.0165837
0.00583402
-0.0111408
-0.0338346
-0.06073
-0.0892281
-0.115427
-0.135178
-0.145844
-0.146443
-0.137201
-0.119827
-0.0975255
-0.0732974
-0.0488879
-0.0258389
-0.00653787
0.00660703
0.0126281
0.0119762
0.00562136
-0.00458704
-0.0150825
-0.0225079
-0.0265935
-0.029886
-0.034736
-0.0412487
-0.0479233
-0.0538816
-0.059553
-0.0655253
-0.0715044
-0.0760473
-0.0770096
-0.0729743
-0.0646063
-0.054323
-0.044368
-0.0351683
-0.0259379
-0.0171425
-0.0114355
-0.011435
-0.0171409
-0.0259356
-0.0351659
-0.044366
-0.0543216
-0.0646055
-0.0729739
-0.0770094
-0.0760477
-0.0715056
-0.0655273
-0.0595552
-0.0538831
-0.0479236
-0.0412476
-0.0347339
-0.0298831
-0.0265903
-0.0225041
-0.0150778
-0.00458132
0.00562782
0.0119826
0.0126335
0.0066107
-0.00653653
-0.02584
-0.0488911
-0.0733021
-0.0975308
-0.119832
-0.137206
-0.146448
-0.145848
-0.135181
-0.115429
-0.0892282
-0.0607287
-0.0338326
-0.0111387
0.00583578
0.0165847
0.0217395
0.0227244
0.0208598
0.0172353
0.0127349
0.00784282
0.00266828
0.00361227
0.010709
0.017574
0.0240139
0.0293867
0.0325462
0.0321963
0.0271172
0.0161892
-0.000941515
-0.0234944
-0.0496379
-0.0767178
-0.101153
-0.119124
-0.128049
-0.126946
-0.116176
-0.0975255
-0.0741126
-0.048985
-0.0242075
-0.0015467
0.0165843
0.0276678
0.0305779
0.026009
0.0156338
0.00199283
-0.0111648
-0.0208299
-0.0271717
-0.032882
-0.0401044
-0.0484554
-0.0559348
-0.0616827
-0.0668032
-0.072744
-0.079581
-0.0853752
-0.0869568
-0.082113
-0.0713546
-0.0575854
-0.0438448
-0.0312443
-0.0194037
-0.00891928
-0.00239399
-0.0023934
-0.00891771
-0.0194016
-0.0312424
-0.0438433
-0.0575843
-0.0713538
-0.0821123
-0.0869563
-0.0853752
-0.0795818
-0.0727454
-0.0668046
-0.0616834
-0.0559345
-0.0484541
-0.0401026
-0.0328799
-0.0271693
-0.0208271
-0.011161
0.00199781
0.0156397
0.0260153
0.0305836
0.0276721
0.0165866
-0.00154658
-0.0242094
-0.0489884
-0.0741171
-0.0975308
-0.116181
-0.126952
-0.128054
-0.119128
-0.101156
-0.0767196
-0.0496384
-0.0234939
-0.000940311
0.0161907
0.0271187
0.0321975
0.032547
0.0293869
0.0240138
0.0175737
0.0107089
0.00361226
0.00440899
0.0131217
0.0216029
0.029522
0.0360598
0.0398911
0.0396573
0.0343179
0.0230553
0.00580236
-0.0163221
-0.0411353
-0.0659607
-0.0876152
-0.102732
-0.108981
-0.105589
-0.093115
-0.0732974
-0.048985
-0.0232046
0.00165749
0.0236509
0.0404358
0.0494729
0.0495051
0.0414488
0.0276354
0.0112139
-0.00401284
-0.0154772
-0.0238049
-0.0318316
-0.0415082
-0.0519608
-0.0606274
-0.0665218
-0.0712846
-0.0772007
-0.0848228
-0.0918971
-0.0943875
-0.0893093
-0.0768945
-0.0603755
-0.0435457
-0.0283022
-0.0147587
-0.00351437
0.00321782
0.0032184
-0.00351289
-0.014757
-0.0283007
-0.0435446
-0.0603746
-0.0768936
-0.0893083
-0.0943866
-0.0918967
-0.0848231
-0.0772014
-0.0712852
-0.0665217
-0.0606265
-0.0519595
-0.0415067
-0.0318303
-0.0238034
-0.0154754
-0.00401016
0.0112177
0.0276402
0.0414541
0.0495102
0.0494771
0.0404386
0.023652
0.00165692
-0.0232067
-0.0489884
-0.0733021
-0.0931206
-0.105595
-0.108987
-0.102738
-0.0876198
-0.0659643
-0.0411378
-0.0163234
0.00580239
0.0230564
0.0343197
0.0396593
0.039893
0.036061
0.0295226
0.021603
0.0131217
0.00440896
0.00499053
0.0148282
0.0242766
0.032848
0.0396365
0.0433394
0.0427399
0.0370391
0.0256492
0.00868954
-0.0124598
-0.0353419
-0.0572922
-0.075489
-0.0870053
-0.0898805
-0.0837633
-0.0695495
-0.0488879
-0.0242075
0.00165749
0.0261541
0.0472593
0.06276
0.0701088
0.0679047
0.0572293
0.040973
0.0227612
0.00631135
-0.00632334
-0.0162211
-0.026357
-0.0385193
-0.051358
-0.0616823
-0.0681993
-0.0728811
-0.0787672
-0.0869875
-0.0952102
-0.098781
-0.0940409
-0.0808377
-0.0625414
-0.0435892
-0.0266881
-0.0124863
-0.00145986
0.00486403
0.00486458
-0.00145854
-0.0124849
-0.026687
-0.0435885
-0.0625407
-0.0808366
-0.0940394
-0.0987796
-0.0952093
-0.0869872
-0.0787672
-0.0728809
-0.0681986
-0.0616812
-0.0513568
-0.0385184
-0.0263564
-0.0162206
-0.00632262
0.00631272
0.0227635
0.0409762
0.0572331
0.0679086
0.0701123
0.0627626
0.047261
0.0261547
0.00165692
-0.0242094
-0.0488912
-0.069554
-0.0837686
-0.0898863
-0.0870111
-0.0754946
-0.0572972
-0.0353459
-0.0124626
0.00868837
0.0256496
0.0370408
0.0427422
0.0433419
0.0396386
0.0328496
0.0242775
0.0148286
0.00499063
0.00522737
0.0154457
0.0250064
0.033322
0.0395337
0.0425251
0.0413547
0.0354989
0.0245349
0.00863675
-0.0107292
-0.0310109
-0.0496339
-0.0640831
-0.0717937
-0.0711819
-0.0624032
-0.0467653
-0.0258389
-0.0015467
0.0236509
0.0472593
0.0673386
0.0818316
0.0881404
0.0846572
0.0725298
0.0550591
0.0361728
0.0193607
0.00613185
-0.00497659
-0.0170317
-0.0316886
-0.0471608
-0.0595885
-0.0671989
-0.0720709
-0.0778843
-0.0864368
-0.0955873
-0.100368
-0.0965877
-0.0836214
-0.0647553
-0.0448868
-0.0274726
-0.0136868
-0.00378769
0.00158668
0.00158717
-0.00378656
-0.0136857
-0.027472
-0.0448865
-0.0647548
-0.0836202
-0.096586
-0.100366
-0.095586
-0.086436
-0.0778837
-0.0720703
-0.067198
-0.0595874
-0.0471599
-0.0316883
-0.0170319
-0.0049771
0.00613143
0.0193607
0.0361736
0.0550606
0.0725319
0.0846595
0.0881428
0.0818339
0.0673406
0.047261
0.023652
-0.00154659
-0.02584
-0.0467678
-0.0624068
-0.0711866
-0.0717992
-0.064089
-0.0496397
-0.031016
-0.0107331
0.00863445
0.0245343
0.0354997
0.0413564
0.0425275
0.0395363
0.0333244
0.0250082
0.0154467
0.00522768
0.00511789
0.015016
0.0240165
0.0315489
0.0368925
0.0391288
0.0375663
0.0319356
0.0219547
0.00776832
-0.00923128
-0.0265742
-0.0418598
-0.0528536
-0.0572857
-0.0538764
-0.043209
-0.0269375
-0.00653787
0.0165843
0.0404358
0.06276
0.0818316
0.0957441
0.101764
0.0980012
0.0855857
0.0680913
0.0495799
0.0331978
0.0199249
0.00801149
-0.00564791
-0.0226123
-0.0407172
-0.0554314
-0.0643774
-0.0695443
-0.075126
-0.0836506
-0.0934212
-0.0994688
-0.0972446
-0.0855841
-0.0674564
-0.0479697
-0.0311816
-0.0187399
-0.0106485
-0.00659275
-0.00659233
-0.0106475
-0.0187392
-0.0311814
-0.0479697
-0.067456
-0.0855829
-0.0972429
-0.099467
-0.0934198
-0.0836496
-0.0751253
-0.0695435
-0.0643765
-0.0554306
-0.0407169
-0.0226126
-0.00564894
0.00801008
0.0199235
0.0331967
0.0495793
0.0680912
0.0855861
0.098002
0.101765
0.0957458
0.0818339
0.0627626
0.0404386
0.0165866
-0.00653653
-0.0269375
-0.0432105
-0.0538795
-0.0572902
-0.0528591
-0.0418655
-0.0265796
-0.00923582
0.00776502
0.0219528
0.031935
0.0375669
0.0391304
0.0368949
0.0315516
0.0240188
0.0150175
0.00511839
0.00476496
0.0139064
0.0220779
0.0288386
0.0336179
0.0355823
0.0341401
0.0291824
0.0205497
0.00833918
-0.00620151
-0.0207798
-0.0332195
-0.0415711
-0.0438431
-0.0389825
-0.0278285
-0.0121963
0.00660703
0.0276678
0.0494729
0.0701088
0.0881404
0.101764
0.108019
0.104693
0.0928608
0.0762741
0.059009
0.0438107
0.0311638
0.0190923
0.00446011
-0.0142499
-0.0345713
-0.0513433
-0.0615177
-0.0668185
-0.0717943
-0.0797062
-0.0895178
-0.0965784
-0.096203
-0.0866881
-0.0704704
-0.0525616
-0.0373742
-0.0269235
-0.0209856
-0.0183862
-0.0183859
-0.020985
-0.0269231
-0.0373743
-0.0525619
-0.0704702
-0.0866871
-0.0962014
-0.0965768
-0.0895166
-0.0797054
-0.0717937
-0.0668178
-0.0615171
-0.0513431
-0.0345716
-0.014251
0.00445844
0.0190902
0.0311617
0.0438088
0.0590073
0.0762727
0.0928597
0.104692
0.108019
0.101765
0.0881428
0.0701123
0.0494771
0.0276721
0.00661069
-0.0121939
-0.0278278
-0.0389837
-0.0438462
-0.0415756
-0.0332247
-0.020785
-0.00620634
0.00833511
0.0205467
0.0291805
0.0341396
0.0355831
0.0336195
0.0288408
0.02208
0.0139079
0.0047655
0.00415467
0.0121265
0.0193135
0.0254636
0.0301238
0.0324407
0.0317619
0.027983
0.0209941
0.0108453
-0.00136045
-0.013539
-0.0237634
-0.0303854
-0.0317135
-0.0268834
-0.0168295
-0.00331654
0.0126281
0.0305779
0.0495051
0.0679047
0.0846572
0.0980012
0.104693
0.102187
0.0914737
0.0763959
0.060981
0.0475879
0.0362573
0.0248089
0.0100493
-0.00956343
-0.03136
-0.0496396
-0.0606557
-0.0656959
-0.0694606
-0.0758783
-0.084741
-0.0920427
-0.0932579
-0.0862481
-0.0727648
-0.0573881
-0.0445445
-0.0364377
-0.032678
-0.0314542
-0.0314541
-0.0326779
-0.0364379
-0.0445451
-0.0573889
-0.072765
-0.0862475
-0.0932568
-0.0920416
-0.0847402
-0.0758779
-0.0694604
-0.0656958
-0.0606558
-0.04964
-0.031361
-0.00956502
0.0100472
0.0248066
0.0362549
0.0475855
0.0609787
0.0763936
0.0914716
0.102185
0.104692
0.098002
0.0846595
0.0679086
0.0495102
0.0305836
0.0126335
-0.00331213
-0.0168268
-0.0268826
-0.0317148
-0.0303885
-0.0237676
-0.0135438
-0.00136529
0.0108408
0.0209903
0.0279801
0.0317603
0.0324403
0.0301243
0.0254646
0.0193147
0.0121275
0.00415506
0.00315723
0.00930519
0.0151137
0.0205119
0.0251417
0.028135
0.0287036
0.0265715
0.0215408
0.0135858
0.00366304
-0.00638024
-0.0148795
-0.0204767
-0.0217831
-0.018107
-0.0103693
-0.000124363
0.0119762
0.026009
0.0414488
0.0572293
0.0725298
0.0855857
0.0928608
0.0914737
0.0822489
0.069006
0.0556952
0.0443689
0.0347297
0.024453
0.0102935
-0.00936428
-0.0317685
-0.0508165
-0.0620979
-0.0663351
-0.0681661
-0.0720505
-0.078688
-0.085004
-0.0869778
-0.082259
-0.0718694
-0.0596433
-0.0496153
-0.0439296
-0.0421001
-0.0419917
-0.0419918
-0.0421006
-0.0439305
-0.0496166
-0.0596446
-0.0718701
-0.082259
-0.0869774
-0.0850037
-0.078688
-0.0720508
-0.0681666
-0.0663356
-0.0620987
-0.0508176
-0.03177
-0.00936611
0.0102914
0.0244508
0.0347274
0.0443666
0.0556927
0.0690034
0.0822463
0.0914716
0.0928597
0.0855861
0.0725319
0.0572331
0.0414541
0.0260153
0.0119826
-0.000118616
-0.0103649
-0.0181045
-0.0217826
-0.0204781
-0.0148825
-0.00638424
0.00365852
0.0135812
0.0215365
0.0265679
0.028701
0.0281332
0.0251406
0.0205113
0.0151134
0.00930524
0.00315729
0.00183356
0.00558509
0.00958298
0.0138779
0.018209
0.0217909
0.0237166
0.0234143
0.0204688
0.0147264
0.0069576
-0.00126749
-0.0085268
-0.0136847
-0.0156073
-0.0137389
-0.0089069
-0.00237073
0.00562136
0.0156338
0.0276354
0.040973
0.0550591
0.0680913
0.0762741
0.0763959
0.069006
0.0577621
0.0465056
0.0370959
0.0290674
0.0200939
0.00696134
-0.0120126
-0.0341001
-0.0529857
-0.0637395
-0.0665042
-0.0656825
-0.0660629
-0.0691998
-0.0731195
-0.0746267
-0.071464
-0.064001
-0.0550879
-0.0479638
-0.0444415
-0.044019
-0.0446017
-0.0446021
-0.0440201
-0.0444432
-0.0479658
-0.0550898
-0.0640024
-0.0714647
-0.0746272
-0.07312
-0.0692007
-0.066064
-0.0656836
-0.0665054
-0.0637407
-0.052987
-0.0341016
-0.0120143
0.00695962
0.0200921
0.0290655
0.0370939
0.0465034
0.0577595
0.0690034
0.0763936