/*--------------------------------*- C++ -*----------------------------------*\
  =========                 |
  \\      /  F ield         | OpenFOAM: The Open Source CFD Toolbox
   \\    /   O peration     | Website:  https://openfoam.org
    \\  /    A nd           | Version:  10
     \\/     M anipulation  |
\*---------------------------------------------------------------------------*/
FoamFile
{
    format      ascii;
    class       volScalarField;
    location    "86";
    object      h;
}
// * * * * * * * * * * * * * * * * * * * * * * * * * * * * * * * * * * * * * //

dimensions      [0 1 0 0 0 0 0];

internalField   nonuniform List<scalar> 
10000
(
0.000823957
0.00232998
0.0034474
0.00400157
0.00387798
0.00300336
0.00134666
-0.00101203
-0.00377597
-0.00643369
-0.0084451
-0.00952705
-0.00982597
-0.0097998
-0.00987165
-0.0101382
-0.0103557
-0.0101765
-0.00940725
-0.00810982
-0.00654872
-0.00501543
-0.00362949
-0.00226822
-0.000710399
0.00111103
0.00299039
0.00459192
0.00566909
0.00613667
0.00603685
0.00551102
0.00476596
0.00396708
0.00314295
0.0022615
0.00137965
0.000633688
0.000118428
-0.000140258
-0.000125836
0.000144932
0.000551645
0.000926227
0.00117135
0.00126638
0.00121284
0.00104211
0.00084161
0.000713151
0.00071327
0.000841952
0.00104262
0.00121347
0.00126704
0.00117197
0.000926743
0.000551991
0.000145073
-0.000125894
-0.000140489
0.000118049
0.000633195
0.0013791
0.00226096
0.00314247
0.00396667
0.00476565
0.0055108
0.00603669
0.00613654
0.00566896
0.00459179
0.00299025
0.00111091
-0.00071049
-0.00226825
-0.00362945
-0.00501532
-0.00654853
-0.00810953
-0.00940684
-0.010176
-0.0103552
-0.0101377
-0.00987123
-0.0097995
-0.00982579
-0.00952696
-0.00844507
-0.0064337
-0.00377603
-0.00101214
0.00134649
0.00300313
0.00387772
0.00400132
0.0034472
0.00232985
0.000823909
0.00232998
0.00655901
0.0096111
0.0109711
0.0103235
0.00748755
0.0024053
-0.00466741
-0.012852
-0.0206468
-0.0264661
-0.0294749
-0.0300973
-0.0296749
-0.0294596
-0.0297672
-0.029936
-0.0290073
-0.0264638
-0.0225177
-0.0179515
-0.0136016
-0.0097819
-0.00609196
-0.00184517
0.00319291
0.00845462
0.0129799
0.0160583
0.0174459
0.0172612
0.0158936
0.0139119
0.011773
0.00954657
0.00712274
0.00464473
0.0024992
0.000975948
0.000174428
0.000158875
0.000888103
0.00202025
0.00307455
0.00376657
0.0040264
0.00385319
0.00334385
0.00275862
0.00238869
0.00238894
0.00275936
0.00334496
0.00385453
0.00402782
0.00376792
0.00307569
0.00202103
0.000888459
0.000158818
0.00017401
0.000975211
0.0024982
0.00464357
0.00712155
0.00954545
0.011772
0.0139111
0.0158929
0.0172606
0.0174453
0.0160577
0.0129793
0.008454
0.00319238
-0.00184552
-0.00609207
-0.00978175
-0.0136012
-0.0179508
-0.0225167
-0.0264625
-0.0290058
-0.0299344
-0.0297657
-0.0294584
-0.0296741
-0.0300968
-0.0294747
-0.0264661
-0.0206469
-0.0128522
-0.00466773
0.0024048
0.00748689
0.0103227
0.0109704
0.00961051
0.00655863
0.00232985
0.0034474
0.0096111
0.0137906
0.0151635
0.0132947
0.00800304
-0.000704964
-0.0123631
-0.025557
-0.0379031
-0.0468824
-0.0511585
-0.0513933
-0.0497214
-0.0481707
-0.0473371
-0.0463183
-0.0437593
-0.0389771
-0.03239
-0.025253
-0.0188352
-0.0135242
-0.00855837
-0.00272944
0.00444336
0.0121496
0.0189216
0.023656
0.0259741
0.0260433
0.0244092
0.0218736
0.0190853
0.0161151
0.0127423
0.00913007
0.00585866
0.00342005
0.00203609
0.00185301
0.00282799
0.00444607
0.00597226
0.00695558
0.00726232
0.00688318
0.00599394
0.00502752
0.00443407
0.00443425
0.00502803
0.00599472
0.00688413
0.00726335
0.00695659
0.00597314
0.00444675
0.00282841
0.00185318
0.00203603
0.00341974
0.00585809
0.00912927
0.0127413
0.016114
0.0190841
0.0218723
0.0244079
0.0260419
0.0259726
0.0236545
0.01892
0.0121482
0.00444222
-0.00273015
-0.00855856
-0.0135239
-0.0188344
-0.0252518
-0.0323883
-0.038975
-0.0437569
-0.0463159
-0.0473349
-0.048169
-0.0497203
-0.0513926
-0.0511582
-0.0468824
-0.0379033
-0.0255574
-0.0123636
-0.000705731
0.00800203
0.0132936
0.0151624
0.0137897
0.00961051
0.00344719
0.00400157
0.0109711
0.0151635
0.0155212
0.0116189
0.003423
-0.00888313
-0.024603
-0.0418929
-0.05769
-0.0687466
-0.0733262
-0.0722818
-0.0684072
-0.064414
-0.0612342
-0.0579319
-0.0530117
-0.0458048
-0.0369729
-0.0281417
-0.0208387
-0.0153627
-0.0104908
-0.00443657
0.00360065
0.012688
0.0209754
0.0270435
0.0303929
0.0311925
0.0300341
0.0278079
0.0252414
0.0223578
0.0187954
0.0146728
0.0106977
0.007556
0.00562882
0.00517272
0.00616472
0.00796847
0.00965903
0.010647
0.0107339
0.00991601
0.0084799
0.0070433
0.00619438
0.00619435
0.00704323
0.00847979
0.0099159
0.0107338
0.0106469
0.00965911
0.00796867
0.00616507
0.0051732
0.00562938
0.00755651
0.0106981
0.0146729
0.0187951
0.022357
0.0252403
0.0278063
0.0300322
0.0311902
0.0303904
0.027041
0.0209729
0.0126858
0.00359901
-0.00443748
-0.0104908
-0.015362
-0.0208373
-0.0281398
-0.0369705
-0.045802
-0.0530087
-0.057929
-0.0612317
-0.0644121
-0.068406
-0.0722812
-0.073326
-0.0687468
-0.0576903
-0.0418934
-0.0246036
-0.00888408
0.00342177
0.0116175
0.0155198
0.0151624
0.0109704
0.00400131
0.00387798
0.0103235
0.0132947
0.0116189
0.00504306
-0.00616286
-0.0215499
-0.040227
-0.0601101
-0.077754
-0.089472
-0.0932808
-0.0901845
-0.0834697
-0.0763918
-0.0702219
-0.0641439
-0.0567291
-0.0474573
-0.0372233
-0.027878
-0.0210097
-0.0166748
-0.0131168
-0.00795411
-4.59151e-05
0.0096157
0.0188834
0.0260736
0.0305629
0.0324729
0.0323627
0.0311165
0.0294581
0.0273267
0.0242132
0.0201641
0.0159655
0.0124632
0.0101916
0.00951545
0.0104346
0.0122202
0.0137983
0.0144663
0.0139839
0.0123943
0.0101407
0.00804982
0.00685265
0.00685248
0.00804933
0.0101399
0.0123934
0.013983
0.0144656
0.0137977
0.01222
0.0104349
0.00951604
0.0101924
0.0124641
0.0159662
0.0201646
0.0242131
0.027326
0.0294567
0.0311145
0.0323602
0.03247
0.0305599
0.0260705
0.0188806
0.00961339
-4.74938e-05
-0.00795476
-0.0131165
-0.0166736
-0.0210077
-0.0278755
-0.0372205
-0.0474543
-0.0567261
-0.0641412
-0.0702196
-0.0763902
-0.0834688
-0.0901842
-0.093281
-0.0894725
-0.0777546
-0.0601108
-0.0402279
-0.021551
-0.00616415
0.00504164
0.0116175
0.0132935
0.0103227
0.00387771
0.00300336
0.00748755
0.00800304
0.003423
-0.00616286
-0.0200536
-0.0375071
-0.0575525
-0.0781312
-0.0957732
-0.106683
-0.108807
-0.103257
-0.0936188
-0.0834931
-0.0744127
-0.0657371
-0.0562128
-0.0455326
-0.0347878
-0.0259224
-0.0204343
-0.0180461
-0.0164617
-0.0127503
-0.00547396
0.00432067
0.0142288
0.0223292
0.0278674
0.0308968
0.0319343
0.0318436
0.0313144
0.0301874
0.0278263
0.0242232
0.0202197
0.0167712
0.0145165
0.0138932
0.0149026
0.0167213
0.0181339
0.0183369
0.0170796
0.0145004
0.0112348
0.00833587
0.00670001
0.00669989
0.00833551
0.0112342
0.0144997
0.0170789
0.0183363
0.0181335
0.0167211
0.0149027
0.0138935
0.014517
0.0167716
0.0202199
0.024223
0.0278255
0.0301859
0.0313123
0.031841
0.0319314
0.0308938
0.0278645
0.0223266
0.0142266
0.00431911
-0.00547472
-0.0127501
-0.0164606
-0.0180442
-0.0204317
-0.0259195
-0.0347848
-0.0455297
-0.0562102
-0.0657348
-0.074411
-0.0834919
-0.0936183
-0.103257
-0.108807
-0.106684
-0.0957742
-0.0781322
-0.0575535
-0.0375082
-0.0200548
-0.00616415
0.00342176
0.00800202
0.00748688
0.00300312
0.00134666
0.0024053
-0.000704964
-0.00888313
-0.0215499
-0.0375071
-0.055769
-0.0754658
-0.0948635
-0.110822
-0.11974
-0.119641
-0.111687
-0.0995405
-0.0869142
-0.0754555
-0.0646617
-0.0534743
-0.0418158
-0.0309605
-0.0228983
-0.018988
-0.0186183
-0.0190173
-0.0167999
-0.0102988
-0.000622977
0.00959502
0.0182171
0.0243674
0.0280599
0.0298261
0.0305554
0.0309081
0.0306276
0.0289826
0.0259466
0.0224144
0.0194076
0.0176135
0.0174905
0.0190044
0.0212166
0.022758
0.0227187
0.0208522
0.0174126
0.0132256
0.00955743
0.00748547
0.00748555
0.00955764
0.0132259
0.017413
0.0208526
0.0227191
0.0227583
0.0212168
0.0190045
0.0174904
0.017613
0.0194068
0.0224132
0.0259449
0.0289803
0.0306249
0.0309051
0.0305523
0.0298231
0.0280573
0.0243652
0.0182155
0.00959409
-0.000623218
-0.0102983
-0.0167986
-0.0190154
-0.0186158
-0.018985
-0.0228952
-0.0309576
-0.0418133
-0.0534722
-0.0646601
-0.0754543
-0.0869134
-0.0995403
-0.111687
-0.119642
-0.119741
-0.110823
-0.0948648
-0.075467
-0.0557701
-0.0375082
-0.021551
-0.0088841
-0.00070575
0.00240478
0.00134647
-0.00101203
-0.00466741
-0.0123631
-0.024603
-0.040227
-0.0575525
-0.0754658
-0.0933978
-0.110201
-0.123337
-0.129612
-0.127207
-0.117247
-0.103266
-0.088853
-0.075601
-0.063059
-0.0503345
-0.037591
-0.0263335
-0.0186625
-0.01586
-0.0170527
-0.0190903
-0.0182299
-0.0126172
-0.003391
0.00664642
0.0151775
0.0212404
0.0248768
0.026717
0.0277273
0.0285434
0.028811
0.0277245
0.0252575
0.0223569
0.0200963
0.0191841
0.0200572
0.0226037
0.0257523
0.0279735
0.0282379
0.0262889
0.0224751
0.0177675
0.0135979
0.011214
0.0112143
0.0135986
0.0177686
0.0224765
0.0262903
0.0282392
0.0279745
0.0257529
0.0226037
0.0200565
0.0191828
0.0200943
0.0223543
0.0252543
0.027721
0.0288073
0.0285397
0.0277239
0.0267143
0.0248748
0.0212393
0.0151771
0.0066468
-0.00338996
-0.0126156
-0.0182278
-0.0190877
-0.0170497
-0.0158569
-0.0186595
-0.0263309
-0.0375889
-0.050333
-0.0630578
-0.0756002
-0.0888525
-0.103266
-0.117247
-0.127208
-0.129613
-0.123338
-0.110202
-0.0933993
-0.075467
-0.0575535
-0.0402279
-0.0246037
-0.0123636
-0.00466776
-0.00101216
-0.00377597
-0.012852
-0.025557
-0.0418929
-0.0601101
-0.0781312
-0.0948635
-0.110201
-0.123735
-0.133658
-0.137262
-0.132887
-0.121533
-0.106446
-0.0909164
-0.0763396
-0.0622257
-0.0478106
-0.0335216
-0.0211921
-0.0131738
-0.0108012
-0.0130385
-0.0164417
-0.0169697
-0.0125711
-0.00432952
0.00488138
0.0126256
0.0179054
0.0208599
0.0222804
0.0232249
0.0242861
0.0250015
0.0244877
0.0226961
0.0206045
0.0193448
0.0196575
0.021934
0.0259491
0.0304957
0.0339033
0.0350223
0.0335592
0.0299156
0.0251532
0.0208127
0.0182827
0.018283
0.0208136
0.0251545
0.0299171
0.0335608
0.0350237
0.0339042
0.030496
0.0259487
0.0219327
0.0196555
0.019342
0.0206012
0.0226923
0.0244837
0.0249975
0.0242824
0.0232219
0.0222783
0.0208588
0.0179052
0.0126263
0.00488271
-0.00432768
-0.0125688
-0.0169672
-0.0164389
-0.0130355
-0.0107983
-0.0131711
-0.02119
-0.03352
-0.0478095
-0.062225
-0.0763392
-0.0909162
-0.106446
-0.121533
-0.132888
-0.137264
-0.13366
-0.123737
-0.110202
-0.0948648
-0.0781322
-0.0601108
-0.0418934
-0.0255574
-0.0128522
-0.00377605
-0.00643369
-0.0206468
-0.0379031
-0.05769
-0.077754
-0.0957732
-0.110822
-0.123337
-0.133658
-0.140673
-0.142106
-0.136404
-0.124385
-0.10893
-0.0929445
-0.0775398
-0.0621149
-0.0459896
-0.0298681
-0.0160034
-0.00713875
-0.0047924
-0.00785254
-0.0126345
-0.0148211
-0.0121301
-0.00548912
0.00226972
0.0086637
0.012702
0.0146605
0.0155113
0.0163846
0.017799
0.0191755
0.0195376
0.0187593
0.0177922
0.0178214
0.0196392
0.0235778
0.0292674
0.035372
0.0401226
0.0422754
0.0414928
0.038213
0.033572
0.0291972
0.0265954
0.0265956
0.0291977
0.0335727
0.0382138
0.0414934
0.0422758
0.0401225
0.0353713
0.029266
0.0235758
0.0196367
0.0178185
0.0177889
0.0187558
0.0195341
0.0191722
0.0177963
0.0163826
0.0155103
0.0146604
0.0127028
0.00866514
0.0022716
-0.00548697
-0.0121278
-0.0148187
-0.012632
-0.00785003
-0.00478999
-0.00713667
-0.0160018
-0.0298672
-0.0459891
-0.0621146
-0.0775398
-0.0929447
-0.108931
-0.124386
-0.136406
-0.142108
-0.140675
-0.13366
-0.123338
-0.110823
-0.0957742
-0.0777546
-0.0576903
-0.0379033
-0.0206469
-0.00643372
-0.0084451
-0.0264661
-0.0468824
-0.0687466
-0.089472
-0.106683
-0.11974
-0.129612
-0.137262
-0.142106
-0.14217
-0.135953
-0.124077
-0.109067
-0.0934364
-0.0779784
-0.0619162
-0.0445834
-0.0269256
-0.0116398
-0.00193552
0.000402308
-0.00350112
-0.00976374
-0.0138262
-0.0131769
-0.00853358
-0.00260021
0.00215732
0.00477867
0.00568071
0.00600943
0.00694782
0.00893035
0.0112779
0.0129287
0.0136277
0.0142173
0.0158875
0.0194706
0.0252183
0.0325827
0.0400993
0.0459439
0.0488252
0.048393
0.0451574
0.040375
0.0357928
0.0330384
0.0330384
0.0357926
0.0403746
0.0451568
0.048392
0.0488238
0.0459421
0.0400971
0.0325801
0.0252154
0.0194675
0.0158845
0.0142144
0.013625
0.0129264
0.0112762
0.00892929
0.00694756
0.00600996
0.00568197
0.0047805
0.00215948
-0.00259794
-0.00853135
-0.0131748
-0.0138242
-0.00976179
-0.00349927
0.000403981
-0.00193421
-0.011639
-0.0269254
-0.0445835
-0.0619165
-0.0779789
-0.0934371
-0.109068
-0.124078
-0.135954
-0.142172
-0.142108
-0.137264
-0.129614
-0.119741
-0.106684
-0.0894725
-0.0687468
-0.0468824
-0.0264661
-0.00844509
-0.00952705
-0.0294749
-0.0511585
-0.0733262
-0.0932808
-0.108807
-0.119641
-0.127207
-0.132887
-0.136404
-0.135953
-0.13005
-0.119171
-0.105534
-0.091283
-0.0768737
-0.0612786
-0.0437401
-0.0253481
-0.00918316
0.00109166
0.00339618
-0.00118955
-0.00866934
-0.0143423
-0.0155523
-0.01283
-0.00871144
-0.00559775
-0.00440826
-0.00459781
-0.00485049
-0.00391845
-0.00141887
0.00192999
0.0050382
0.00751675
0.0100208
0.0136541
0.0192325
0.0268936
0.0358798
0.044583
0.0511428
0.0542616
0.0536259
0.049883
0.0444912
0.0393813
0.0363197
0.0363194
0.0393805
0.0444898
0.0498811
0.0536234
0.0542586
0.0511393
0.0445792
0.0358758
0.0268897
0.0192288
0.0136509
0.0100182
0.00751484
0.00503707
0.00192974
-0.00141824
-0.00391703
-0.00484839
-0.00459521
-0.00440539
-0.00559488
-0.00870877
-0.0128276
-0.0155503
-0.0143406
-0.00866787
-0.00118831
0.00339713
0.00109218
-0.00918316
-0.0253486
-0.0437408
-0.0612795
-0.0768747
-0.0912842
-0.105535
-0.119173
-0.130052
-0.135954
-0.136406
-0.132888
-0.127208
-0.119642
-0.108807
-0.093281
-0.0733261
-0.0511583
-0.0294747
-0.00952698
-0.00982597
-0.0300973
-0.0513933
-0.0722818
-0.0901845
-0.103257
-0.111687
-0.117247
-0.121533
-0.124385
-0.124077
-0.119171
-0.110062
-0.0987122
-0.0869025
-0.0747086
-0.0607708
-0.0441232
-0.025868
-0.00934805
0.00139667
0.00399515
-0.000595562
-0.00841332
-0.0147974
-0.0171046
-0.0157579
-0.0131206
-0.0114936
-0.0117466
-0.0132162
-0.0144059
-0.013961
-0.0114813
-0.00762747
-0.00340857
0.000714426
0.00517712
0.0109042
0.0186186
0.0283108
0.0389948
0.0488941
0.0560941
0.0592951
0.0582407
0.0537529
0.0475443
0.0417721
0.038345
0.0383446
0.0417708
0.0475423
0.0537502
0.0582373
0.059291
0.0560895
0.0488892
0.0389899
0.0283062
0.0186146
0.010901
0.00517478
0.000713134
-0.00340874
-0.00762653
-0.0114794
-0.0139583
-0.0144027
-0.0132126
-0.011743
-0.0114902
-0.0131176
-0.0157554
-0.0171026
-0.0147959
-0.00841215
-0.000594758
0.00399555
0.00139658
-0.00934863
-0.0258689
-0.0441243
-0.060772
-0.07471
-0.086904
-0.0987139
-0.110064
-0.119173
-0.124078
-0.124386
-0.121533
-0.117247
-0.111687
-0.103257
-0.0901842
-0.0722813
-0.0513926
-0.0300968
-0.0098258
-0.0097998
-0.0296749
-0.0497214
-0.0684072
-0.0834697
-0.0936188
-0.0995405
-0.103266
-0.106446
-0.10893
-0.109067
-0.105534
-0.0987122
-0.0903212
-0.0817406
-0.0726109
-0.0611816
-0.046197
-0.028651
-0.0120078
-0.000575999
0.00300436
-0.000525039
-0.00742536
-0.0132975
-0.0156854
-0.0149872
-0.0133946
-0.0130791
-0.0148509
-0.0179348
-0.0206458
-0.02148
-0.0199473
-0.0165464
-0.0120737
-0.00694264
-0.000895311
0.00677361
0.0166375
0.0285201
0.0412054
0.0527236
0.0610595
0.064866
0.0639038
0.0591319
0.0524906
0.0463418
0.0427073
0.0427068
0.0463405
0.0524883
0.0591289
0.0639
0.0648615
0.0610546
0.0527185
0.0412005
0.0285155
0.0166337
0.00677066
-0.000897176
-0.0069433
-0.0120731
-0.0165447
-0.0199447
-0.0214768
-0.0206421
-0.0179309
-0.014847
-0.0130756
-0.0133916
-0.0149847
-0.0156835
-0.0132961
-0.00742444
-0.000524582
0.00300435
-0.000576499
-0.0120088
-0.0286522
-0.0461982
-0.0611828
-0.0726123
-0.0817423
-0.090323
-0.0987139
-0.105535
-0.109068
-0.108931
-0.106446
-0.103266
-0.0995403
-0.0936183
-0.0834688
-0.068406
-0.0497203
-0.0296741
-0.0097995
-0.00987165
-0.0294596
-0.0481707
-0.064414
-0.0763918
-0.0834931
-0.0869142
-0.088853
-0.0909164
-0.0929445
-0.0934364
-0.091283
-0.0869025
-0.0817406
-0.0767089
-0.0709764
-0.0624088
-0.0494539
-0.0329206
-0.0162551
-0.00390146
0.00128053
-0.000257791
-0.00517881
-0.00954484
-0.0112213
-0.0106255
-0.00976305
-0.0106497
-0.0140337
-0.0190483
-0.0238375
-0.0267371
-0.0271182
-0.0252403
-0.0215746
-0.0163505
-0.0093791
-0.000138021
0.0117853
0.0260425
0.0411949
0.0550623
0.0654779
0.0709761
0.0712434
0.0672641
0.0610965
0.055224
0.0517242
0.0517237
0.0552226
0.0610943
0.0672611
0.0712397
0.0709719
0.0654733
0.0550577
0.0411905
0.0260387
0.0117823
-0.000140019
-0.00938
-0.0163503
-0.0215733
-0.025238
-0.0271153
-0.0267338
-0.0238341
-0.0190448
-0.0140303
-0.0106467
-0.00976058
-0.0106235
-0.0112198
-0.00954388
-0.00517835
-0.000257785
0.00128011
-0.00390227
-0.0162562
-0.0329218
-0.049455
-0.0624098
-0.0709776
-0.0767103
-0.0817423
-0.086904
-0.0912842
-0.0934371
-0.0929447
-0.0909162
-0.0888525
-0.0869134
-0.0834919
-0.0763902
-0.0644121
-0.048169
-0.0294584
-0.00987122
-0.0101382
-0.0297672
-0.0473371
-0.0612342
-0.0702219
-0.0744127
-0.0754555
-0.075601
-0.0763396
-0.0775398
-0.0779784
-0.0768737
-0.0747086
-0.0726109
-0.0709764
-0.0685273
-0.0628371
-0.0521292
-0.0369914
-0.0207044
-0.00767209
-0.000873637
-0.0001709
-0.00274615
-0.00525657
-0.00596118
-0.00529756
-0.00505739
-0.00708492
-0.0120835
-0.0191412
-0.026281
-0.0316997
-0.0346163
-0.035019
-0.0330013
-0.0285054
-0.0212812
-0.0108965
0.00293172
0.0196876
0.0377156
0.0546203
0.068054
0.0763777
0.0791091
0.0771197
0.0724387
0.0675608
0.0645646
0.0645641
0.0675594
0.0724364
0.0771167
0.0791054
0.0763738
0.06805
0.0546166
0.0377124
0.0196852
0.00293019
-0.010897
-0.0212807
-0.0285038
-0.032999
-0.0350161
-0.0346132
-0.0316967
-0.0262781
-0.0191385
-0.0120811
-0.00708301
-0.00505599
-0.00529661
-0.00596066
-0.00525648
-0.00274646
-0.000171542
-0.000874549
-0.00767319
-0.0207055
-0.0369924
-0.0521299
-0.0628378
-0.0685281
-0.0709776
-0.0726123
-0.07471
-0.0768747
-0.0779789
-0.0775398
-0.0763392
-0.0756002
-0.0754542
-0.074411
-0.0702196
-0.0612317
-0.0473349
-0.0297657
-0.0101377
-0.0103557
-0.029936
-0.0463183
-0.0579319
-0.0641439
-0.0657371
-0.0646617
-0.063059
-0.0622257
-0.0621149
-0.0619162
-0.0612786
-0.0607708
-0.0611816
-0.0624088
-0.0628371
-0.0599173
-0.0517691
-0.0387359
-0.0237583
-0.0109743
-0.00332527
-0.000946373
-0.00158227
-0.00254366
-0.00250611
-0.00191215
-0.00231763
-0.00539474
-0.0118396
-0.0207622
-0.0301312
-0.0380411
-0.0435691
-0.046451
-0.0464218
-0.0431051
-0.0360943
-0.0249465
-0.00945537
0.00971043
0.0306856
0.0508697
0.0677427
0.0794885
0.0854097
0.0861628
0.083621
0.0801975
0.0779359
0.0779354
0.080196
0.0836186
0.0861597
0.0854061
0.0794849
0.0677395
0.0508671
0.0306838
0.00970953
-0.00945518
-0.0249452
-0.0360921
-0.0431021
-0.0464184
-0.0464475
-0.0435659
-0.0380383
-0.0301289
-0.0207603
-0.0118384
-0.0053941
-0.00231753
-0.00191249
-0.00250681
-0.00254469
-0.00158351
-0.000947712
-0.00332665
-0.0109756
-0.0237595
-0.0387368
-0.0517698
-0.0599178
-0.0628378
-0.0624098
-0.0611828
-0.0607721
-0.0612795
-0.0619165
-0.0621146
-0.062225
-0.0630578
-0.0646601
-0.0657348
-0.0641411
-0.057929
-0.0463159
-0.0299344
-0.0103552
-0.0101765
-0.0290073
-0.0437593
-0.0530117
-0.0567291
-0.0562128
-0.0534743
-0.0503345
-0.0478106
-0.0459896
-0.0445834
-0.0437401
-0.0441232
-0.046197
-0.0494539
-0.0521292
-0.0517691
-0.0465244
-0.0364598
-0.0239816
-0.0127135
-0.00537676
-0.00230198
-0.00178385
-0.0017926
-0.00142051
-0.00110883
-0.00217329
-0.00612442
-0.0136933
-0.0240787
-0.0352553
-0.0452454
-0.0530042
-0.0580637
-0.0598771
-0.0577934
-0.0512275
-0.0396681
-0.0229345
-0.00181398
0.0216463
0.0446738
0.0646214
0.0795457
0.0885573
0.0920666
0.091726
0.0898114
0.088311
0.0883105
0.0898099
0.0917235
0.0920636
0.088554
0.0795426
0.064619
0.0446723
0.0216458
-0.00181336
-0.0229327
-0.0396652
-0.0512238
-0.0577893
-0.059873
-0.05806
-0.0530011
-0.045243
-0.0352535
-0.0240777
-0.013693
-0.00612491
-0.00217433
-0.00111028
-0.00142226
-0.00179452
-0.00178576
-0.00230374
-0.00537833
-0.0127149
-0.0239829
-0.0364607
-0.0465252
-0.0517698
-0.0521299
-0.049455
-0.0461982
-0.0441243
-0.0437408
-0.0445835
-0.045989
-0.0478095
-0.050333
-0.0534722
-0.0562101
-0.0567261
-0.0530087
-0.0437569
-0.0290058
-0.010176
-0.00940725
-0.0264638
-0.0389771
-0.0458048
-0.0474573
-0.0455326
-0.0418158
-0.037591
-0.0335216
-0.0298681
-0.0269256
-0.0253481
-0.025868
-0.028651
-0.0329206
-0.0369914
-0.0387359
-0.0364598
-0.0299112
-0.0207916
-0.0119999
-0.00588453
-0.00289645
-0.00184646
-0.00134101
-0.000878224
-0.000906737
-0.0025186
-0.00707761
-0.0153781
-0.0267542
-0.0392255
-0.0507581
-0.0601979
-0.0669238
-0.0701995
-0.0691909
-0.0631875
-0.0516179
-0.0342941
-0.0120625
0.0129137
0.0377501
0.0597359
0.0768743
0.0881537
0.0937798
0.0951898
0.0945047
0.0936332
0.0936326
0.0945032
0.0951876
0.0937772
0.0881511
0.0768722
0.0597346
0.0377499
0.0129145
-0.0120605
-0.034291
-0.051614
-0.0631832
-0.0691865
-0.0701955
-0.0669205
-0.0601953
-0.0507563
-0.0392245
-0.026754
-0.0153788
-0.0070789
-0.00252037
-0.00090883
-0.000880492
-0.00134325
-0.00184846
-0.00289809
-0.00588586
-0.0120011
-0.0207927
-0.0299123
-0.0364607
-0.0387368
-0.0369924
-0.0329217
-0.0286522
-0.0258689
-0.0253486
-0.0269254
-0.0298671
-0.0335199
-0.0375889
-0.0418132
-0.0455297
-0.0474542
-0.045802
-0.0389749
-0.0264625
-0.00940682
-0.00810982
-0.0225177
-0.03239
-0.0369729
-0.0372233
-0.0347878
-0.0309605
-0.0263335
-0.0211921
-0.0160034
-0.0116398
-0.00918316
-0.00934805
-0.0120078
-0.0162551
-0.0207044
-0.0237583
-0.0239816
-0.0207916
-0.0150912
-0.00894502
-0.00424992
-0.00153446
-8.67903e-05
0.000899411
0.00155065
0.00139628
-0.000468599
-0.00528212
-0.0139108
-0.025843
-0.0391681
-0.0518052
-0.0624906
-0.0704736
-0.0748919
-0.074819
-0.0695121
-0.0584025
-0.041292
-0.0190145
0.00624961
0.0315862
0.0542792
0.0723384
0.0847078
0.0914747
0.0939223
0.094026
0.0935811
0.0935808
0.094025
0.093921
0.0914734
0.0847067
0.0723379
0.0542795
0.0315874
0.00625174
-0.0190114
-0.0412881
-0.0583982
-0.0695079
-0.0748152
-0.0748888
-0.0704712
-0.0624891
-0.0518045
-0.0391681
-0.0258437
-0.0139122
-0.00528392
-0.000470676
0.00139409
0.0015485
0.000897533
-8.82116e-05
-0.00153541
-0.00425059
-0.0089457
-0.0150921
-0.0207927
-0.0239828
-0.0237594
-0.0207055
-0.0162562
-0.0120087
-0.00934861
-0.00918314
-0.011639
-0.0160018
-0.0211899
-0.0263309
-0.0309576
-0.0347848
-0.0372204
-0.0369705
-0.0323883
-0.0225167
-0.00810951
-0.00654872
-0.0179515
-0.025253
-0.0281417
-0.027878
-0.0259224
-0.0228983
-0.0186625
-0.0131738
-0.00713875
-0.00193552
0.00109166
0.00139667
-0.000575999
-0.00390146
-0.00767209
-0.0109743
-0.0127135
-0.0119999
-0.00894502
-0.00478787
-0.000983766
0.0018635
0.00403039
0.00581643
0.00703611
0.00719169
0.00551525
0.000863248
-0.00770005
-0.0198209
-0.0336841
-0.0471767
-0.0589112
-0.0679897
-0.0734366
-0.0742877
-0.0698577
-0.0596685
-0.0435434
-0.0222505
0.00211577
0.0267014
0.0488324
0.0665556
0.0788302
0.085721
0.0884447
0.0888604
0.0886222
0.0886222
0.0888604
0.0884449
0.0857216
0.0788314
0.0665573
0.0488347
0.0267043
0.00211922
-0.0222466
-0.0435393
-0.0596647
-0.0698544
-0.0742853
-0.073435
-0.0679889
-0.0589113
-0.0471774
-0.0336854
-0.0198226
-0.00770203
0.000861158
0.0055132
0.00718982
0.00703457
0.00581542
0.00403
0.00186358
-0.000983576
-0.004788
-0.00894569
-0.012001
-0.0127148
-0.0109756
-0.00767316
-0.00390224
-0.000576472
0.00139661
0.0010922
-0.00193419
-0.00713665
-0.0131711
-0.0186595
-0.0228952
-0.0259195
-0.0278754
-0.0281398
-0.0252518
-0.0179508
-0.00654852
-0.00501543
-0.0136016
-0.0188352
-0.0208387
-0.0210097
-0.0204343
-0.018988
-0.01586
-0.0108012
-0.0047924
0.000402308
0.00339618
0.00399515
0.00300436
0.00128053
-0.000873637
-0.00332527
-0.00537676
-0.00588453
-0.00424992
-0.000983766
0.00282188
0.00646104
0.0098232
0.0128094
0.0150176
0.0159375
0.0148887
0.0107844
0.00262467
-0.00939509
-0.0235878
-0.0378313
-0.0505919
-0.060779
-0.0672808
-0.0691153
-0.0657141
-0.0567721
-0.0421954
-0.0226841
-0.000178037
0.0226116
0.0431017
0.0593979
0.0705167
0.0765822
0.0788294
0.0790481
0.0787625
0.0787629
0.0790493
0.0788315
0.0765852
0.0705205
0.0594022
0.0431063
0.0226162
-0.00017339
-0.0226796
-0.0421916
-0.0567692
-0.0657123
-0.0691145
-0.0672811
-0.0607802
-0.0505937
-0.0378336
-0.0235904
-0.00939774
0.00262218
0.0107822
0.0148869
0.0159362
0.0150169
0.0128094
0.0098239
0.00646209
0.00282275
-0.000983565
-0.00425057
-0.00588583
-0.0053783
-0.00332661
-0.00087452
0.00128014
0.00300437
0.00399557
0.00339715
0.000403995
-0.00478998
-0.0107983
-0.0158569
-0.018985
-0.0204317
-0.0210077
-0.0208373
-0.0188344
-0.0136012
-0.00501531
-0.00362949
-0.0097819
-0.0135242
-0.0153627
-0.0166748
-0.0180461
-0.0186183
-0.0170527
-0.0130385
-0.00785254
-0.00350112
-0.00118955
-0.000595562
-0.000525039
-0.000257791
-0.0001709
-0.000946373
-0.00230198
-0.00289645
-0.00153446
0.0018635
0.00646104
0.0114136
0.0162749
0.020661
0.0240595
0.0259821
0.0258027
0.0224598
0.0148942
0.00314577
-0.0112542
-0.0261961
-0.0399792
-0.0512809
-0.0588344
-0.0616515
-0.0593095
-0.0517288
-0.0389776
-0.0217495
-0.00182683
0.0182847
0.0361611
0.0500138
0.0589649
0.063262
0.0642237
0.0636362
0.0629684
0.0629692
0.0636388
0.0642279
0.0632673
0.0589711
0.0500204
0.0361677
0.0182909
-0.00182132
-0.021745
-0.0389744
-0.0517271
-0.0593093
-0.0616525
-0.0588366
-0.0512838
-0.0399827
-0.0261998
-0.0112579
0.0031425
0.0148915
0.0224578
0.0258014
0.0259815
0.0240596
0.0206619
0.0162764
0.0114152
0.0064621
0.0018636
-0.00153538
-0.00289806
-0.00230372
-0.00094769
-0.000171523
-0.000257768
-0.000524567
-0.000594747
-0.0011883
-0.00349926
-0.00785003
-0.0130355
-0.0170497
-0.0186157
-0.0180442
-0.0166736
-0.015362
-0.0135239
-0.00978174
-0.00362945
-0.00226822
-0.00609196
-0.00855837
-0.0104908
-0.0131168
-0.0164617
-0.0190173
-0.0190903
-0.0164417
-0.0126345
-0.00976374
-0.00866934
-0.00841332
-0.00742536
-0.00517881
-0.00274615
-0.00158227
-0.00178385
-0.00184646
-8.67903e-05
0.00403039
0.0098232
0.0162749
0.0226408
0.0283396
0.0328397
0.0357211
0.0364039
0.0338296
0.026881
0.0154516
0.000912078
-0.0146457
-0.0293422
-0.0416121
-0.0500527
-0.0536998
-0.0522896
-0.0459863
-0.0350953
-0.0204136
-0.00362621
0.0130005
0.0272898
0.0376459
0.0433681
0.0448849
0.0436497
0.0415245
0.0400523
0.0400536
0.0415282
0.0436555
0.0448921
0.0433761
0.0376542
0.0272978
0.0130076
-0.00362039
-0.0204095
-0.035093
-0.0459859
-0.0522907
-0.0537023
-0.0500562
-0.0416163
-0.0293468
-0.0146502
0.000908033
0.0154482
0.0268785
0.033828
0.0364032
0.0357211
0.0328404
0.0283409
0.0226425
0.0162764
0.00982391
0.00403002
-8.81879e-05
-0.00184843
-0.00178575
-0.0015835
-0.00274646
-0.00517834
-0.00742444
-0.00841216
-0.00866788
-0.00976181
-0.012632
-0.016439
-0.0190877
-0.0190154
-0.0164606
-0.0131165
-0.0104908
-0.00855855
-0.00609207
-0.00226825
-0.000710399
-0.00184517
-0.00272944
-0.00443657
-0.00795411
-0.0127503
-0.0167999
-0.0182299
-0.0169697
-0.0148211
-0.0138262
-0.0143423
-0.0147974
-0.0132975
-0.00954484
-0.00525657
-0.00254366
-0.0017926
-0.00134101
0.000899411
0.00581643
0.0128094
0.020661
0.0283396
0.0351132
0.0404973
0.0441888
0.0456602
0.0438323
0.0375146
0.0264648
0.0119126
-0.00405472
-0.0193753
-0.0322614
-0.041229
-0.0453953
-0.0446688
-0.0394513
-0.0303313
-0.0183209
-0.00509617
0.0073232
0.0170928
0.0229119
0.0243463
0.0220714
0.0177263
0.0133278
0.0106247
0.0106262
0.0133322
0.0177328
0.0220794
0.0243551
0.0229208
0.0171012
0.00733043
-0.00509069
-0.0183175
-0.0303301
-0.039452
-0.044671
-0.0453987
-0.0412333
-0.0322662
-0.0193802
-0.00405925
0.0119088
0.0264619
0.0375127
0.0438314
0.0456601
0.0441892
0.0404983
0.0351144
0.0283409
0.0206619
0.0128095
0.00581544
0.000897556
-0.00134323
-0.00179451
-0.00254468
-0.00525649
-0.00954388
-0.0132961
-0.0147959
-0.0143406
-0.0138242
-0.0148188
-0.0169672
-0.0182278
-0.0167986
-0.0127501
-0.00795476
-0.00443749
-0.00273015
-0.00184552
-0.000710487
0.00111103
0.00319291
0.00444336
0.00360065
-4.59151e-05
-0.00547396
-0.0102988
-0.0126172
-0.0125711
-0.0121301
-0.0131769
-0.0155523
-0.0171046
-0.0156854
-0.0112213
-0.00596118
-0.00250611
-0.00142051
-0.000878224
0.00155065
0.00703611
0.0150176
0.0240595
0.0328397
0.0404973
0.0466417
0.0511297
0.0534922
0.0525935
0.0471331
0.0367326
0.0225043
0.00654456
-0.00890982
-0.021883
-0.0308726
-0.0351451
-0.0348085
-0.0304836
-0.0230437
-0.0137733
-0.00440298
0.00328709
0.00783274
0.00830166
0.0046088
-0.00224418
-0.0103739
-0.0175579
-0.0217769
-0.0217754
-0.0175536
-0.0103675
-0.00223635
0.00461735
0.00831022
0.00784061
0.00329362
-0.00439833
-0.0137707
-0.0230433
-0.0304848
-0.034811
-0.0351487
-0.0308769
-0.0218876
-0.00891432
0.00654063
0.0225012
0.0367306
0.047132
0.0525932
0.0534925
0.0511303
0.0466426
0.0404983
0.0328404
0.0240596
0.0150169
0.0070346
0.00154853
-0.000880473
-0.00142226
-0.00250682
-0.00596067
-0.0112198
-0.0156835
-0.0171026
-0.0155503
-0.0131748
-0.0121278
-0.0125689
-0.0126156
-0.0102983
-0.00547472
-4.74987e-05
0.003599
0.00444221
0.00319238
0.00111091
0.00299039
0.00845462
0.0121496
0.012688
0.0096157
0.00432067
-0.000622977
-0.003391
-0.00432952
-0.00548912
-0.00853358
-0.01283
-0.0157579
-0.0149872
-0.0106255
-0.00529756
-0.00191215
-0.00110883
-0.000906737
0.00139628
0.00719169
0.0159375
0.0259821
0.0357211
0.0441888
0.0511297
0.0565959
0.0601774
0.0606411
0.0565267
0.0473
0.0339583
0.0186035
0.00362895
-0.00882641
-0.0172829
-0.0212165
-0.0209774
-0.017394
-0.0115809
-0.00506698
0.000364239
0.00316259
0.00223533
-0.00297328
-0.0121524
-0.0238961
-0.0360177
-0.0460871
-0.051854
-0.0518528
-0.0460837
-0.0360124
-0.0238895
-0.012145
-0.00296597
0.00224189
0.00316787
0.000367865
-0.00506513
-0.0115808
-0.0173952
-0.0209797
-0.0212195
-0.0172865
-0.00883015
0.00362546
0.0186006
0.0339562
0.0472987
0.0565262
0.0606413
0.0601779
0.0565965
0.0511303
0.0441892
0.0357211
0.0259815
0.0159363
0.00718984
0.00139412
-0.000908809
-0.00111027
-0.00191249
-0.00529661
-0.0106235
-0.0149847
-0.0157554
-0.0128276
-0.00853137
-0.00548698
-0.00432769
-0.00338996
-0.000623215
0.00431912
0.00961339
0.0126858
0.0121482
0.008454
0.00299025
0.00459192
0.0129799
0.0189216
0.0209754
0.0188834
0.0142288
0.00959502
0.00664642
0.00488138
0.00226972
-0.00260021
-0.00871144
-0.0131206
-0.0133946
-0.00976305
-0.00505739
-0.00231763
-0.00217329
-0.0025186
-0.000468599
0.00551525
0.0148887
0.0258027
0.0364039
0.0456602
0.0534922
0.0601774