/*--------------------------------*- C++ -*----------------------------------*\
  =========                 |
  \\      /  F ield         | OpenFOAM: The Open Source CFD Toolbox
   \\    /   O peration     | Website:  https://openfoam.org
    \\  /    A nd           | Version:  10
     \\/     M anipulation  |
\*---------------------------------------------------------------------------*/
FoamFile
{
    format      ascii;
    class       volScalarField;
    location    "86";
    object      h_0;
}
// * * * * * * * * * * * * * * * * * * * * * * * * * * * * * * * * * * * * * //

dimensions      [0 1 0 0 0 0 0];

internalField   nonuniform List<scalar> 
10000
(
0.000816983
0.00230749
0.00340692
0.00394331
0.00380607
0.00292386
0.00126458
-0.00109378
-0.00385463
-0.00650476
-0.00850283
-0.0095663
-0.00984467
-0.00979981
-0.00985687
-0.010112
-0.0103199
-0.0101333
-0.00936072
-0.00806574
-0.00651137
-0.00498515
-0.00360332
-0.00224237
-0.000682267
0.00114239
0.00302419
0.00462576
0.00570031
0.00616415
0.00606106
0.0055322
0.00478273
0.00397722
0.00314486
0.00225434
0.00136325
0.000609197
8.90099e-05
-0.000170407
-0.000153497
0.000121351
0.00053305
0.00091315
0.00116352
0.00126314
0.00121395
0.00104726
0.0008495
0.000722111
0.00072223
0.000849843
0.00104778
0.00121458
0.0012638
0.00116414
0.000913666
0.000533396
0.000121492
-0.000153556
-0.000170638
8.86331e-05
0.000608707
0.0013627
0.0022538
0.00314438
0.00397682
0.00478242
0.00553197
0.0060609
0.00616402
0.00570018
0.00462561
0.00302404
0.00114225
-0.000682364
-0.00224241
-0.00360328
-0.00498504
-0.00651118
-0.00806545
-0.0093603
-0.0101328
-0.0103194
-0.0101114
-0.00985644
-0.00979951
-0.00984449
-0.00956621
-0.0085028
-0.00650478
-0.00385469
-0.00109389
0.00126441
0.00292364
0.00380581
0.00394306
0.00340672
0.00230736
0.000816936
0.00230749
0.00648738
0.00948419
0.010791
0.0101035
0.00724651
0.00215822
-0.00491194
-0.013086
-0.0208571
-0.0266362
-0.0295905
-0.0301535
-0.0296782
-0.0294216
-0.029697
-0.0298379
-0.0288858
-0.0263298
-0.0223878
-0.0178386
-0.0135073
-0.00969819
-0.00600871
-0.001756
0.00328932
0.00855447
0.0130748
0.0161398
0.0175112
0.0173134
0.0159356
0.013942
0.0117868
0.00954164
0.00709801
0.00460037
0.00243867
0.000907688
0.000108872
0.000102811
0.000843411
0.00198703
0.00305206
0.00375212
0.00401703
0.00384835
0.00334378
0.00276134
0.00239172
0.00239198
0.00276207
0.00334489
0.00384969
0.00401845
0.00375347
0.00305319
0.0019878
0.000843765
0.000102753
0.000108455
0.000906956
0.00243767
0.00459922
0.00709683
0.00954054
0.0117859
0.0139411
0.0159349
0.0173128
0.0175106
0.0161392
0.0130741
0.00855384
0.00328878
-0.00175637
-0.00600884
-0.00969805
-0.0135069
-0.017838
-0.0223869
-0.0263285
-0.0288843
-0.0298363
-0.0296955
-0.0294204
-0.0296773
-0.030153
-0.0295903
-0.0266361
-0.0208572
-0.0130862
-0.00491226
0.00215772
0.00724586
0.0101028
0.0107903
0.00948361
0.00648701
0.00230736
0.00340692
0.00948419
0.0135705
0.0148573
0.0129271
0.00760589
-0.00110726
-0.0127572
-0.0259306
-0.0382356
-0.0471484
-0.0513378
-0.0514815
-0.0497319
-0.0481229
-0.0472433
-0.0461814
-0.0435817
-0.038773
-0.0321851
-0.0250688
-0.0186754
-0.0133775
-0.00841066
-0.00257339
0.00460639
0.0123097
0.0190615
0.0237605
0.0260402
0.0260799
0.0244264
0.0218743
0.0190684
0.0160811
0.012693
0.00906756
0.00578868
0.00335416
0.00198636
0.00182371
0.00281525
0.00444376
0.00597358
0.00695159
0.00724573
0.00685347
0.00595432
0.00497942
0.00437953
0.00437971
0.00497993
0.00595511
0.00685442
0.00724676
0.00695259
0.00597446
0.00444444
0.00281567
0.00182389
0.0019863
0.00335386
0.00578811
0.00906676
0.012692
0.0160801
0.0190673
0.021873
0.0244251
0.0260785
0.0260387
0.023759
0.0190599
0.0123082
0.00460523
-0.00257412
-0.00841087
-0.0133772
-0.0186746
-0.0250675
-0.0321834
-0.0387709
-0.0435793
-0.0461789
-0.0472412
-0.0481212
-0.0497307
-0.0514808
-0.0513375
-0.0471484
-0.0382358
-0.0259309
-0.0127577
-0.00110803
0.00760488
0.012926
0.0148562
0.0135696
0.00948361
0.00340671
0.00394331
0.010791
0.0148573
0.0151041
0.0111276
0.00290109
-0.00940428
-0.0251074
-0.0423655
-0.0581045
-0.0690712
-0.0735383
-0.072382
-0.0684185
-0.0643641
-0.0611361
-0.0577821
-0.052806
-0.0455569
-0.0367154
-0.0279042
-0.0206274
-0.0151634
-0.0102861
-0.00421926
0.00382481
0.0129005
0.0211483
0.0271535
0.0304369
0.0311874
0.0299997
0.0277547
0.0251742
0.0222823
0.0187179
0.0145983
0.0106343
0.00751705
0.00562489
0.00520163
0.00621313
0.0080209
0.00969985
0.0106588
0.010704
0.00984426
0.00837399
0.00691071
0.00604499
0.00604497
0.00691063
0.00837389
0.00984415
0.0107039
0.0106588
0.00969991
0.00802109
0.00621347
0.00520212
0.00562545
0.00751756
0.0106347
0.0145984
0.0187176
0.0222816
0.025173
0.0277531
0.0299977
0.0311851
0.0304344
0.0271509
0.0211458
0.0128983
0.00382314
-0.0042202
-0.0102862
-0.0151627
-0.020626
-0.0279022
-0.036713
-0.0455541
-0.052803
-0.0577793
-0.0611337
-0.0643622
-0.0684173
-0.0723814
-0.0735382
-0.0690714
-0.0581048
-0.042366
-0.0251081
-0.00940524
0.00289986
0.0111263
0.0151027
0.0148562
0.0107903
0.00394306
0.00380607
0.0101035
0.0129271
0.0111276
0.00447557
-0.00675518
-0.0221329
-0.040785
-0.0606267
-0.0781983
-0.0898074
-0.0934852
-0.0902666
-0.0834651
-0.0763366
-0.070128
-0.0639988
-0.0565189
-0.047193
-0.0369431
-0.0276183
-0.0207784
-0.0164533
-0.0128815
-0.00769535
0.000227585
0.00987731
0.0190939
0.0262009
0.0306024
0.0324469
0.0322988
0.0310311
0.0293595
0.027224
0.0241152
0.0200786
0.0159033
0.0124403
0.0102178
0.00958368
0.0105242
0.0123083
0.0138622
0.0144819
0.0139341
0.012279
0.0099715
0.00783923
0.00661695
0.00661678
0.00783875
0.00997077
0.0122781
0.0139332
0.0144812
0.0138617
0.0123081
0.0105244
0.00958427
0.0102186
0.0124412
0.0159041
0.020079
0.0241152
0.0272233
0.0293582
0.0310291
0.0322963
0.032444
0.0305994
0.0261979
0.0190912
0.009875
0.000225989
-0.00769602
-0.0128812
-0.016452
-0.0207765
-0.0276158
-0.0369403
-0.04719
-0.0565159
-0.0639961
-0.0701257
-0.0763349
-0.0834641
-0.0902663
-0.0934853
-0.0898079
-0.0781989
-0.0606274
-0.0407858
-0.0221339
-0.00675647
0.00447415
0.0111263
0.012926
0.0101028
0.0038058
0.00292386
0.00724651
0.00760589
0.00290109
-0.00675518
-0.020662
-0.0380992
-0.0581156
-0.0786482
-0.096208
-0.106994
-0.108974
-0.103298
-0.0935822
-0.083424
-0.0743217
-0.0656022
-0.0560106
-0.0452721
-0.0345124
-0.0256745
-0.0202217
-0.0178424
-0.0162328
-0.0124789
-0.00516748
0.00463029
0.0144931
0.022507
0.0279496
0.0309062
0.0319005
0.0317832
0.0312337
0.0300933
0.0277272
0.024128
0.0201429
0.016733
0.0145305
0.013953
0.0149861
0.0168038
0.0181906
0.0183409
0.0170115
0.01436
0.0110349
0.0080905
0.00642714
0.00642702
0.00809014
0.0110344
0.0143594
0.0170109
0.0183403
0.0181901
0.0168036
0.0149863
0.0139534
0.014531
0.0167334
0.0201431
0.0241278
0.0277264
0.0300919
0.0312317
0.0317807
0.0318977
0.0309032
0.0279467
0.0225043
0.0144909
0.00462872
-0.00516825
-0.0124787
-0.0162317
-0.0178405
-0.0202192
-0.0256716
-0.0345094
-0.0452692
-0.056008
-0.0655999
-0.07432
-0.0834228
-0.0935816
-0.103298
-0.108974
-0.106995
-0.096209
-0.0786492
-0.0581167
-0.0381003
-0.0206632
-0.00675647
0.00289985
0.00760487
0.00724585
0.00292362
0.00126458
0.00215822
-0.00110726
-0.00940428
-0.0221329
-0.0380992
-0.0563429
-0.0760124
-0.0953642
-0.111234
-0.120017
-0.119762
-0.11168
-0.0994663
-0.0868255
-0.075362
-0.0645339
-0.0532822
-0.0415687
-0.0307078
-0.0226881
-0.0188265
-0.0184687
-0.018831
-0.0165472
-0.00998183
-0.000275245
0.00991878
0.018468
0.0245298
0.0281524
0.0298746
0.0305711
0.0308906
0.0305773
0.0289043
0.0258497
0.0223167
0.0193356
0.0175877
0.0175106
0.0190519
0.0212688
0.0227915
0.0227074
0.0207766
0.0172717
0.013031
0.00932165
0.00722459
0.00722467
0.00932187
0.0130313
0.0172721
0.020777
0.0227077
0.0227918
0.021269
0.019052
0.0175105
0.0175873
0.0193348
0.0223155
0.025848
0.0289021
0.0305746
0.0308876
0.030568
0.0298716
0.0281497
0.0245277
0.0184664
0.00991784
-0.000275498
-0.00998134
-0.016546
-0.018829
-0.0184661
-0.0188235
-0.022685
-0.0307049
-0.0415661
-0.0532801
-0.0645323
-0.0753607
-0.0868248
-0.0994661
-0.11168
-0.119763
-0.120018
-0.111235
-0.0953656
-0.0760137
-0.056344
-0.0381003
-0.0221339
-0.00940525
-0.00110804
0.0021577
0.00126439
-0.00109378
-0.00491194
-0.0127572
-0.0251074
-0.040785
-0.0581156
-0.0760124
-0.093922
-0.110681
-0.123725
-0.129854
-0.127285
-0.117194
-0.103155
-0.0887417
-0.0754989
-0.0629318
-0.0501494
-0.03736
-0.026113
-0.0185054
-0.0157702
-0.0169828
-0.0189765
-0.018029
-0.0123235
-0.00303669
0.0070036
0.0154836
0.0214742
0.0250509
0.0268515
0.0278268
0.0285998
0.0288178
0.0276823
0.0251747
0.0222541
0.020005
0.0191317
0.0200495
0.0226265
0.0257845
0.0279927
0.0282191
0.0262133
0.0223408
0.0175847
0.0133779
0.0109713
0.0109716
0.0133787
0.0175859
0.0223421
0.0262147
0.0282204
0.0279937
0.025785
0.0226265
0.0200489
0.0191304
0.020003
0.0222515
0.0251716
0.0276787
0.028814
0.0285961
0.0278234
0.0268488
0.0250489
0.021473
0.0154833
0.00700396
-0.00303567
-0.0123218
-0.0180269
-0.0189739
-0.0169798
-0.0157671
-0.0185024
-0.0261103
-0.0373579
-0.0501478
-0.0629306
-0.0754981
-0.0887413
-0.103155
-0.117195
-0.127286
-0.129856
-0.123726
-0.110683
-0.0939235
-0.0760137
-0.0581167
-0.0407859
-0.0251081
-0.0127577
-0.00491228
-0.00109391
-0.00385463
-0.013086
-0.0259306
-0.0423655
-0.0606267
-0.0786482
-0.0953642
-0.110681
-0.124172
-0.134
-0.137452
-0.132909
-0.121428
-0.106292
-0.0907761
-0.0762211
-0.0620921
-0.0476287
-0.0333076
-0.0210085
-0.0130774
-0.0107939
-0.0130643
-0.0164248
-0.0168552
-0.0123458
-0.0040229
0.00521201
0.0129256
0.0181516
0.0210618
0.0224543
0.0233714
0.0243925
0.0250568
0.0244889
0.0226499
0.0205312
0.0192772
0.019625
0.0219442
0.0259879
0.0305401
0.0339283
0.0350022
0.0334756
0.0297667
0.0249498
0.0205678
0.0180134
0.0180137
0.0205687
0.0249511
0.0297683
0.0334771
0.0350036
0.0339292
0.0305404
0.0259875
0.021943
0.019623
0.0192745
0.0205279
0.0226461
0.0244849
0.0250528
0.0243888
0.0233683
0.0224521
0.0210606
0.0181514
0.0129262
0.00521331
-0.00402107
-0.0123436
-0.0168527
-0.016422
-0.0130614
-0.010791
-0.0130747
-0.0210063
-0.033306
-0.0476277
-0.0620913
-0.0762206
-0.0907759
-0.106292
-0.121428
-0.13291
-0.137454
-0.134001
-0.124174
-0.110683
-0.0953656
-0.0786492
-0.0606275
-0.042366
-0.0259309
-0.0130862
-0.0038547
-0.00650476
-0.0208571
-0.0382356
-0.0581045
-0.0781983
-0.096208
-0.111234
-0.123725
-0.134
-0.140916
-0.1422
-0.136338
-0.124205
-0.108718
-0.0927629
-0.077394
-0.0619661
-0.045806
-0.0296696
-0.0158562
-0.00710187
-0.00486655
-0.00797699
-0.0127261
-0.0148178
-0.0120129
-0.00528388
0.0025092
0.00888691
0.0128893
0.0148231
0.0156657
0.0165314
0.0179252
0.0192679
0.0195899
0.0187747
0.0177877
0.0178259
0.0196777
0.0236537
0.029362
0.0354565
0.0401663
0.0422497
0.0413796
0.0380123
0.0332976
0.0288679
0.026235
0.0262352
0.0288684
0.0332983
0.0380131
0.0413802
0.0422501
0.0401662
0.0354558
0.0293607
0.0236518
0.0196751
0.0178229
0.0177844
0.0187712
0.0195864
0.0192647
0.0179225
0.0165295
0.0156647
0.014823
0.0128901
0.00888834
0.00251106
-0.00528174
-0.0120106
-0.0148154
-0.0127236
-0.00797449
-0.00486414
-0.00709978
-0.0158546
-0.0296686
-0.0458055
-0.0619659
-0.0773939
-0.092763
-0.108719
-0.124206
-0.136339
-0.142202
-0.140918
-0.134002
-0.123726
-0.111235
-0.096209
-0.0781989
-0.0581049
-0.0382358
-0.0208572
-0.00650479
-0.00850283
-0.0266362
-0.0471484
-0.0690712
-0.0898074
-0.106994
-0.120017
-0.129854
-0.137452
-0.1422
-0.142126
-0.135768
-0.123803
-0.108785
-0.0932027
-0.0777945
-0.0617421
-0.0443893
-0.0267343
-0.0115187
-0.00194369
0.000264464
-0.00370698
-0.00995229
-0.013932
-0.0131776
-0.00845096
-0.00248219
0.00226813
0.00487017
0.0057693
0.006115
0.00707373
0.00906515
0.0114072
0.0130423
0.0137241
0.0143079
0.0159938
0.0196087
0.0253838
0.03275
0.0402326
0.0460061
0.0487845
0.0482319
0.0448789
0.0399977
0.035343
0.0325491
0.032549
0.0353428
0.0399973
0.0448782
0.0482309
0.0487832
0.0460043
0.0402304
0.0327474
0.0253808
0.0196057
0.0159908
0.014305
0.0137214
0.0130399
0.0114054
0.00906409
0.00707345
0.00611552
0.00577054
0.00487199
0.00227028
-0.00247992
-0.00844873
-0.0131755
-0.01393
-0.00995034
-0.00370512
0.000266139
-0.00194238
-0.0115179
-0.0267341
-0.0443894
-0.0617425
-0.0777949
-0.0932033
-0.108786
-0.123805
-0.135769
-0.142128
-0.142202
-0.137454
-0.129856
-0.120018
-0.106995
-0.0898079
-0.0690714
-0.0471484
-0.0266361
-0.00850281
-0.0095663
-0.0295905
-0.0513378
-0.0735383
-0.0934852
-0.108974
-0.119762
-0.127285
-0.132909
-0.136338
-0.135768
-0.129753
-0.118815
-0.105191
-0.0910027
-0.0766512
-0.061074
-0.043527
-0.025152
-0.00907086
0.00106278
0.00322533
-0.00144271
-0.00892087
-0.0145263
-0.0156447
-0.0128489
-0.00869822
-0.00558608
-0.00440195
-0.00457458
-0.00478629
-0.0038066
-0.00126929
0.00210103
0.00521651
0.00769647
0.0102082
0.013863
0.0194693
0.0271458
0.0361162
0.0447625
0.0512231
0.0542087
0.0534232
0.0495364
0.0440238
0.0388265
0.0357184
0.0357181
0.0388257
0.0440224
0.0495344
0.0534208
0.0542057
0.0512196
0.0447586
0.0361122
0.0271418
0.0194657
0.0138598
0.0102056
0.00769454
0.00521537
0.00210076
-0.00126868
-0.00380519
-0.00478421
-0.00457199
-0.00439909
-0.00558321
-0.00869554
-0.0128465
-0.0156427
-0.0145246
-0.0089194
-0.00144146
0.00322629
0.00106331
-0.00907086
-0.0251524
-0.0435277
-0.0610749
-0.0766522
-0.0910039
-0.105193
-0.118816
-0.129755
-0.135769
-0.136339
-0.13291
-0.127286
-0.119763
-0.108974
-0.0934854
-0.0735382
-0.0513375
-0.0295903
-0.00956622
-0.00984467
-0.0301535
-0.0514815
-0.072382
-0.0902666
-0.103298
-0.11168
-0.117194
-0.121428
-0.124205
-0.123803
-0.118815
-0.109671
-0.0983478
-0.0866012
-0.0744609
-0.0605389
-0.0438868
-0.0256563
-0.00922665
0.00137286
0.0038245
-0.000857207
-0.00868552
-0.0150156
-0.017244
-0.0158345
-0.0131704
-0.0115432
-0.0117936
-0.013234
-0.0143673
-0.0138562
-0.0113191
-0.00742568
-0.00318419
0.000953728
0.00543553
0.0111905
0.0189319
0.0286325
0.0392904
0.049119
0.0562029
0.0592522
0.0580305
0.0533824
0.0470392
0.0411705
0.0376933
0.0376929
0.0411693
0.0470372
0.0533797
0.0580271
0.0592481
0.0561983
0.0491141
0.0392855
0.0286279
0.0189279
0.0111872
0.00543317
0.00095241
-0.00318439
-0.00742477
-0.0113172
-0.0138536
-0.0143641
-0.0132304
-0.01179
-0.0115398
-0.0131674
-0.0158319
-0.017242
-0.015014
-0.00868434
-0.00085639
0.00382492
0.00137279
-0.00922722
-0.0256572
-0.0438879
-0.0605401
-0.0744622
-0.0866028
-0.0983496
-0.109673
-0.118816
-0.123805
-0.124206
-0.121428
-0.117195
-0.11168
-0.103298
-0.0902663
-0.0723814
-0.0514808
-0.0301531
-0.0098445
-0.00979981
-0.0296782
-0.0497319
-0.0684185
-0.0834651
-0.0935822
-0.0994663
-0.103155
-0.106292
-0.108718
-0.108785
-0.105191
-0.0983478
-0.0899811
-0.0814488
-0.0723541
-0.0609274
-0.0459339
-0.0284135
-0.0118608
-0.00057203
0.00286218
-0.000762635
-0.00768282
-0.0135127
-0.0158343
-0.0150853
-0.0134755
-0.013165
-0.0149358
-0.0179901
-0.0206419
-0.0214036
-0.0198041
-0.0163538
-0.0118483
-0.00669043
-0.000610454
0.00709832
0.0169971
0.0288921
0.041553
0.0529991
0.0612142
0.0648632
0.063728
0.0587895
0.0520068
0.0457575
0.0420717
0.0420712
0.0457562
0.0520046
0.0587865
0.0637243
0.0648588
0.0612093
0.052994
0.041548
0.0288876
0.0169932
0.00709535
-0.00061235
-0.00669112
-0.0118477
-0.0163521
-0.0198015
-0.0214004
-0.0206382
-0.0179862
-0.0149319
-0.0131614
-0.0134725
-0.0150828
-0.0158323
-0.0135113
-0.00768189
-0.000762166
0.00286218
-0.00057252
-0.0118617
-0.0284147
-0.0459351
-0.0609286
-0.0723555
-0.0814504
-0.0899829
-0.0983496
-0.105193
-0.108786
-0.108719
-0.106292
-0.103155
-0.0994661
-0.0935816
-0.0834641
-0.0684173
-0.0497307
-0.0296773
-0.00979951
-0.00985687
-0.0294216
-0.0481229
-0.0643641
-0.0763366
-0.083424
-0.0868255
-0.0887417
-0.0907761
-0.0927629
-0.0932027
-0.0910027
-0.0866012
-0.0814488
-0.076439
-0.0707138
-0.0621284
-0.0491545
-0.0326427
-0.0160637
-0.00384793
0.00119033
-0.000447691
-0.00539931
-0.00973746
-0.011364
-0.0107351
-0.00987257
-0.0107791
-0.0141749
-0.0191713
-0.0239098
-0.0267396
-0.0270508
-0.0251156
-0.0214059
-0.0161392
-0.00911531
0.000186137
0.0121624
0.0264474
0.0415873
0.0553903
0.0656882
0.0710303
0.0711252
0.0669774
0.0606649
0.0546892
0.0511376
0.0511371
0.0546878
0.0606627
0.0669745
0.0711215
0.0710261
0.0656836
0.0553857
0.041583
0.0264436
0.0121594
0.000184115
-0.00911624
-0.0161389
-0.0214045
-0.0251133
-0.0270479
-0.0267364
-0.0239063
-0.0191678
-0.0141715
-0.0107762
-0.00987008
-0.0107331
-0.0113625
-0.00973649
-0.00539885
-0.000447683
0.00118991
-0.00384873
-0.0160648
-0.0326438
-0.0491555
-0.0621294
-0.070715
-0.0764404
-0.0814504
-0.0866028
-0.0910039
-0.0932033
-0.092763
-0.0907759
-0.0887413
-0.0868247
-0.0834228
-0.0763349
-0.0643622
-0.0481212
-0.0294204
-0.00985644
-0.010112
-0.029697
-0.0472433
-0.0611361
-0.070128
-0.0743217
-0.075362
-0.0754989
-0.0762211
-0.077394
-0.0777945
-0.0766512
-0.0744609
-0.0723541
-0.0707138
-0.0682439
-0.062515
-0.0517759
-0.0366529
-0.0204459
-0.00754532
-0.000889204
-0.000293627
-0.00291537
-0.00541889
-0.00609738
-0.00542633
-0.00521198
-0.00728314
-0.0123145
-0.0193727
-0.0264768
-0.0318333
-0.0346777
-0.035013
-0.0329353
-0.0283757
-0.021074
-0.0106028
0.00330257
0.0201072
0.0381392
0.0549897
0.0683099
0.0764789
0.0790379
0.076878
0.0720475
0.0670625
0.064013
0.0640125
0.0670611
0.0720453
0.076875
0.0790343
0.0764749
0.0683059
0.054986
0.038136
0.0201047
0.00330103
-0.0106032
-0.0210735
-0.0283742
-0.032933
-0.0350101
-0.0346746
-0.0318302
-0.0264738
-0.0193699
-0.0123121
-0.00728122
-0.00521057
-0.00542537
-0.00609686
-0.00541881
-0.00291569
-0.000294276
-0.000890121
-0.00754643
-0.0204471
-0.0366539
-0.0517767
-0.0625157
-0.0682448
-0.070715
-0.0723555
-0.0744622
-0.0766522
-0.0777949
-0.0773939
-0.0762206
-0.0754981
-0.0753607
-0.07432
-0.0701257
-0.0611336
-0.0472411
-0.0296955
-0.0101114
-0.0103199
-0.0298379
-0.0461814
-0.0577821
-0.0639988
-0.0656022
-0.0645339
-0.0629318
-0.0620921
-0.0619661
-0.0617421
-0.061074
-0.0605389
-0.0609274
-0.0621284
-0.062515
-0.05954
-0.0513498
-0.0383225
-0.0234157
-0.0107552
-0.00324697
-0.0009846
-0.00168664
-0.00266705
-0.00263233
-0.00206135
-0.00252243
-0.00566989
-0.0121706
-0.0211142
-0.0304643
-0.0383212
-0.0437752
-0.0465782
-0.0464713
-0.0430691
-0.035956
-0.0246967
-0.00910579
0.010128
0.0311222
0.0512605
0.0680219
0.0796109
0.0853565
0.085934
0.0832361
0.0796999
0.0773821
0.0773815
0.0796984
0.0832338
0.0859309
0.085353
0.0796073
0.0680186
0.0512579
0.0311203
0.0101271
-0.00910563
-0.0246954
-0.0359537
-0.0430661
-0.046468
-0.0465748
-0.043772
-0.0383183
-0.030462
-0.0211123
-0.0121693
-0.00566924
-0.00252232
-0.00206169
-0.00263305
-0.00266808
-0.00168789
-0.000985952
-0.00324835
-0.0107566
-0.0234169
-0.0383235
-0.0513505
-0.0595406
-0.0625157
-0.0621294
-0.0609287
-0.0605401
-0.0610749
-0.0617425
-0.0619659
-0.0620913
-0.0629306
-0.0645323
-0.0655999
-0.0639961
-0.0577793
-0.0461789
-0.0298362
-0.0103194
-0.0101333
-0.0288858
-0.0435817
-0.052806
-0.0565189
-0.0560106
-0.0532822
-0.0501494
-0.0476287
-0.045806
-0.0443893
-0.043527
-0.0438868
-0.0459339
-0.0491545
-0.0517759
-0.0513498
-0.0460528
-0.035982
-0.0235598
-0.0124006
-0.00519737
-0.00224382
-0.00180786
-0.00185862
-0.00151533
-0.00125318
-0.00239838
-0.00644182
-0.0140854
-0.0245096
-0.0356835
-0.0456313
-0.0533175
-0.0582906
-0.0600132
-0.0578276
-0.0511415
-0.0394534
-0.0226048
-0.00140326
0.0220864
0.0450741
0.0649107
0.079675
0.0885059
0.0918335
0.0913302
0.0892975
0.0877381
0.0877375
0.089296
0.0913278
0.0918304
0.0885026
0.0796719
0.0649082
0.0450725
0.0220859
-0.00140267
-0.022603
-0.0394505
-0.0511379
-0.0578236
-0.0600091
-0.0582869
-0.0533144
-0.0456288
-0.0356818
-0.0245086
-0.0140852
-0.0064423
-0.00239942
-0.00125464
-0.0015171
-0.00186056
-0.00180979
-0.0022456
-0.00519895
-0.012402
-0.023561
-0.035983
-0.0460535
-0.0513505
-0.0517767
-0.0491555
-0.0459351
-0.0438879
-0.0435277
-0.0443894
-0.0458055
-0.0476277
-0.0501478
-0.0532801
-0.0560079
-0.0565159
-0.052803
-0.0435793
-0.0288843
-0.0101328
-0.00936072
-0.0263298
-0.038773
-0.0455569
-0.047193
-0.0452721
-0.0415687
-0.03736
-0.0333076
-0.0296696
-0.0267343
-0.025152
-0.0256563
-0.0284135
-0.0326427
-0.0366529
-0.0383225
-0.035982
-0.0294094
-0.0203215
-0.0116132
-0.00561171
-0.00273703
-0.00177306
-0.00132097
-0.000901505
-0.000994472
-0.00270094
-0.0073647
-0.0157521
-0.027181
-0.0396654
-0.0511697
-0.0605452
-0.0671862
-0.0703676
-0.0692511
-0.0631204
-0.0514151
-0.0339706
-0.0116526
0.013359
0.0381614
0.0600395
0.0770183
0.0881152
0.0935572
0.0948021
0.093997
0.0930655
0.093065
0.0939955
0.0947999
0.0935545
0.0881126
0.0770161
0.0600382
0.038161
0.0133598
-0.0116507
-0.0339675
-0.0514112
-0.0631161
-0.0692468
-0.0703636
-0.0671828
-0.0605426
-0.0511679
-0.0396644
-0.0271808
-0.0157527
-0.00736598
-0.00270271
-0.00099657
-0.000903782
-0.00132323
-0.00177507
-0.00273867
-0.00561304
-0.0116143
-0.0203226
-0.0294104
-0.035983
-0.0383235
-0.0366539
-0.0326438
-0.0284147
-0.0256572
-0.0251524
-0.0267341
-0.0296686
-0.033306
-0.0373578
-0.0415661
-0.0452692
-0.0471899
-0.0455541
-0.0387708
-0.0263285
-0.00936029
-0.00806574
-0.0223878
-0.0321851
-0.0367154
-0.0369431
-0.0345124
-0.0307078
-0.026113
-0.0210085
-0.0158562
-0.0115187
-0.00907086
-0.00922665
-0.0118608
-0.0160637
-0.0204459
-0.0234157
-0.0235598
-0.0203215
-0.0146193
-0.00851843
-0.00390307
-0.00127762
9.55207e-05
0.00103158
0.00163896
0.00141861
-0.000542933
-0.00546497
-0.0141879
-0.0261855
-0.0395413
-0.052169
-0.0628067
-0.0707168
-0.0750487
-0.0748728
-0.0694419
-0.0581995
-0.0409708
-0.0186075
0.00669535
0.0320054
0.0546002
0.0725082
0.0847017
0.09129
0.0935778
0.0935657
0.0930631
0.0930628
0.0935647
0.0935764
0.0912886
0.0847006
0.0725076
0.0546004
0.0320065
0.00669744
-0.0186045
-0.040967
-0.0581953
-0.0694377
-0.074869
-0.0750455
-0.0707144
-0.0628052
-0.0521683
-0.0395413
-0.0261862
-0.0141893
-0.00546676
-0.00054501
0.00141641
0.00163681
0.0010297
9.41017e-05
-0.00127855
-0.00390372
-0.00851909
-0.0146202
-0.0203226
-0.023561
-0.0234169
-0.020447
-0.0160648
-0.0118617
-0.0092272
-0.00907084
-0.0115179
-0.0158546
-0.0210063
-0.0261103
-0.0307049
-0.0345094
-0.0369402
-0.036713
-0.0321834
-0.0223869
-0.00806543
-0.00651137
-0.0178386
-0.0250688
-0.0279042
-0.0276183
-0.0256745
-0.0226881
-0.0185054
-0.0130774
-0.00710187
-0.00194369
0.00106278
0.00137286
-0.00057203
-0.00384793
-0.00754532
-0.0107552
-0.0124006
-0.0116132
-0.00851843
-0.00436076
-0.00059206
0.00219978
0.0043145
0.00606376
0.00724864
0.00734572
0.00557808
0.000818507
-0.00784491
-0.0200447
-0.0339585
-0.0474648
-0.0591744
-0.0682
-0.0735767
-0.0743381
-0.0697954
-0.0594834
-0.043248
-0.0218735
0.00253343
0.0271019
0.0491501
0.0667396
0.0788551
0.0855827
0.0881606
0.0884711
0.0881806
0.0881806
0.088471
0.0881607
0.0855833
0.0788562
0.0667413
0.0491523
0.0271047
0.00253684
-0.0218696
-0.0432439
-0.0594795
-0.0697922
-0.0743357
-0.0735751
-0.0681992
-0.0591744
-0.0474655
-0.0339597
-0.0200464
-0.00784688
0.000816417
0.00557602
0.00734384
0.00724709
0.00606275
0.00431412
0.00219988
-0.000591848
-0.00436087
-0.00851908
-0.0116143
-0.012402
-0.0107565
-0.0075464
-0.0038487
-0.000572493
0.00137281
0.00106334
-0.00194236
-0.00709976
-0.0130747
-0.0185023
-0.022685
-0.0256716
-0.0276158
-0.0279022
-0.0250675
-0.017838
-0.00651117
-0.00498515
-0.0135073
-0.0186754
-0.0206274
-0.0207784
-0.0202217
-0.0188265
-0.0157702
-0.0107939
-0.00486655
0.000264464
0.00322533
0.0038245
0.00286218
0.00119033
-0.000889204
-0.00324697
-0.00519737
-0.00561171
-0.00390307
-0.00059206
0.00322307
0.00684296
0.010177
0.0131415
0.0153259
0.0161976
0.0150658
0.0108569
0.002592
-0.0095201
-0.023783
-0.0380632
-0.0508225
-0.060979
-0.0674302
-0.0691923
-0.0656945
-0.0566437
-0.0419678
-0.0223811
0.000165657
0.0229471
0.0433724
0.0595583
0.0705427
0.0764689
0.0785909
0.0787192
0.0783887
0.0783891
0.0787204
0.078593
0.0764719
0.0705464
0.0595625
0.0433769
0.0229517
0.000170278
-0.0223767
-0.0419639
-0.0566408
-0.0656927
-0.0691916
-0.0674304
-0.0609802
-0.0508243
-0.0380655
-0.0237855
-0.00952274
0.0025895
0.0108547
0.015064
0.0161963
0.0153252
0.0131415
0.0101777
0.00684403
0.00322396
-0.000591837
-0.0039037
-0.00561301
-0.00519892
-0.00324832
-0.000890091
0.00118994
0.0028622
0.00382494
0.00322631
0.000266153
-0.00486413
-0.010791
-0.0157671
-0.0188235
-0.0202192
-0.0207765
-0.020626
-0.0186746
-0.0135069
-0.00498503
-0.00360332
-0.00969819
-0.0133775
-0.0151634
-0.0164533
-0.0178424
-0.0184687
-0.0169828
-0.0130643
-0.00797699
-0.00370698
-0.00144271
-0.000857207
-0.000762635
-0.000447691
-0.000293627
-0.0009846
-0.00224382
-0.00273703
-0.00127762
0.00219978
0.00684296
0.0118047
0.0166551
0.0210286
0.0244106
0.0262934
0.0260401
0.0225977
0.0149251
0.00307507
-0.0114094
-0.0264048
-0.0402045
-0.0514933
-0.0590135
-0.0617756
-0.0593547
-0.0516819
-0.0388444
-0.0215495
-0.00158901
0.0185196
0.0363465
0.0501121
0.058956
0.0631408
0.0640005
0.0633383
0.0626331
0.0626339
0.0633409
0.0640046
0.0631461
0.0589622
0.0501186
0.036353
0.0185258
-0.00158351
-0.021545
-0.0388412
-0.0516802
-0.0593545
-0.0617767
-0.0590157
-0.0514963
-0.040208
-0.0264085
-0.0114131
0.00307179
0.0149224
0.0225957
0.0260388
0.0262928
0.0244107
0.0210295
0.0166565
0.0118063
0.00684404
0.0021999
-0.00127853
-0.00273865
-0.00224557
-0.00098593
-0.000294257
-0.000447665
-0.000762151
-0.000856378
-0.00144145
-0.00370512
-0.00797449
-0.0130614
-0.0169798
-0.0184661
-0.0178405
-0.016452
-0.0151627
-0.0133772
-0.00969804
-0.00360328
-0.00224237
-0.00600871
-0.00841066
-0.0102861
-0.0128815
-0.0162328
-0.018831
-0.0189765
-0.0164248
-0.0127261
-0.00995229
-0.00892087
-0.00868552
-0.00768282
-0.00539931
-0.00291537
-0.00168664
-0.00180786
-0.00177306
9.55207e-05
0.0043145
0.010177
0.0166551
0.0230174
0.0287045
0.0331891
0.0360362
0.0366542
0.0339888
0.0269365
0.0154035
0.000774371
-0.0148433
-0.0295636
-0.0418291
-0.0502466
-0.053852
-0.0523793
-0.0460011
-0.0350383
-0.0203008
-0.00348269
0.0131402
0.0273883
0.0376743
0.0433115
0.0447393
0.0434221
0.0412358
0.0397321
0.0397334
0.0412395
0.0434278
0.0447464
0.0433194
0.0376825
0.0273962
0.0131473
-0.00347689
-0.0202967
-0.0350361
-0.0460007
-0.0523804
-0.0538545
-0.0502501
-0.0418334
-0.0295682
-0.0148478
0.000770318
0.0154002
0.026934
0.0339872
0.0366535
0.0360362
0.0331898
0.0287058
0.023019
0.0166565
0.0101777
0.00431414
9.41252e-05
-0.00177504
-0.00180977
-0.00168788
-0.00291569
-0.00539884
-0.00768189
-0.00868434
-0.0089194
-0.00995035
-0.0127236
-0.016422
-0.0189739
-0.018829
-0.0162317
-0.0128812
-0.0102862
-0.00841087
-0.00600883
-0.0022424
-0.000682267
-0.001756
-0.00257339
-0.00421926
-0.00769535
-0.0124789
-0.0165472
-0.018029
-0.0168552
-0.0148178
-0.013932
-0.0145263
-0.0150156
-0.0135127
-0.00973746
-0.00541889
-0.00266705
-0.00185862
-0.00132097
0.00103158
0.00606376
0.0131415
0.0210286
0.0287045
0.0354624
0.0408279
0.0444878
0.0459031
0.0439942
0.0375802
0.0264313
0.0117932
-0.00422987
-0.0195704
-0.0324498
-0.0413948
-0.0455248
-0.0447473
-0.0394698
-0.0302925
-0.0182384
-0.00499302
0.00741644
0.0171449
0.0229007
0.0242615
0.0219112
0.0174967
0.0130458
0.0103151
0.0103167
0.0130501
0.0175033
0.0219192
0.0242703
0.0229096
0.0171533
0.00742365
-0.00498755
-0.018235
-0.0302912
-0.0394704
-0.0447495
-0.0455282
-0.041399
-0.0324546
-0.0195753
-0.00423441
0.0117894
0.0264285
0.0375784
0.0439933
0.045903
0.0444883
0.0408288
0.0354637
0.0287058
0.0210295
0.0131415
0.00606277
0.00102972
-0.00132321
-0.00186054
-0.00266808
-0.00541882
-0.00973649
-0.0135113
-0.015014
-0.0145246
-0.01393
-0.0148154
-0.0168527
-0.0180269
-0.016546
-0.0124787
-0.00769603
-0.00422021
-0.00257412
-0.00175637
-0.00068236
0.00114239
0.00328932
0.00460639
0.00382481
0.000227585
-0.00516748
-0.00998183
-0.0123235
-0.0123458
-0.0120129
-0.0131776
-0.0156447
-0.017244
-0.0158343
-0.011364
-0.00609738
-0.00263233
-0.00151533
-0.000901505
0.00163896
0.00724864
0.0153259
0.0244106
0.0331891
0.0408279
0.0469512
0.0514102
0.0537242
0.0527539
0.0472054
0.0367132
0.0224078
0.00640367
-0.00905836
-0.022013
-0.0309702
-0.035202
-0.0348173
-0.0304414
-0.0229553
-0.0136517
-0.00427025
0.00340223
0.00790191
0.00830524
0.00453843
-0.0023885
-0.0105845
-0.0178179
-0.0220629
-0.0220614
-0.0178137
-0.0105781
-0.00238067
0.00454698
0.00831381
0.00790978
0.00340876
-0.0042656
-0.0136492
-0.0229549
-0.0304427
-0.0348199
-0.0352055
-0.0309745
-0.0220176
-0.00906286
0.00639974
0.0224047
0.0367111
0.0472043
0.0527537
0.0537245
0.0514108
0.0469521
0.0408288
0.0331898
0.0244107
0.0153252
0.00724711
0.00163683
-0.000903763
-0.00151709
-0.00263305
-0.00609687
-0.0113625
-0.0158323
-0.017242
-0.0156427
-0.0131755
-0.0120107
-0.0123436
-0.0123219
-0.00998135
-0.00516825
0.000225984
0.00382313
0.00460522
0.00328877
0.00114226
0.00302419
0.00855447
0.0123097
0.0129005
0.00987731
0.00463029
-0.000275245
-0.00303669
-0.0040229
-0.00528388
-0.00845096
-0.0128489
-0.0158345
-0.0150853
-0.0107351
-0.00542633
-0.00206135
-0.00125318
-0.000994472
0.00141861
0.00734572
0.0161976
0.0262934
0.0360362
0.0444878
0.0514102
0.0568521
0.0603923
0.0607919
0.0565956
0.0472839
0.0338755
0.0184906
0.00352545
-0.00889286
-0.0172985
-0.0211765
-0.0208825
-0.0172489
-0.0113943
-0.00485277
0.000584439
0.00336037
0.00238196
-0.00289909
-0.0121607
-0.0239865
-0.0361794
-0.0463002
-0.0520933
-0.0520921
-0.0462967
-0.036174
-0.0239798
-0.0121533
-0.00289175
0.00238855
0.00336565
0.00058807
-0.00485093
-0.0113941
-0.0172501
-0.0208848
-0.0211796
-0.0173021
-0.0088966
0.00352195
0.0184877
0.0338734
0.0472826
0.0565951
0.0607921
0.0603928
0.0568528
0.0514108
0.0444883
0.0360362
0.0262928
0.0161963
0.00734386
0.00141644
-0.000996548
-0.00125463
-0.00206168
-0.00542538
-0.0107331
-0.0150828
-0.0158319
-0.0128465
-0.00844875
-0.00528176
-0.00402109
-0.00303567
-0.000275494
0.00462872
0.00987499
0.0128983
0.0123082
0.00855384
0.00302405
0.00462576
0.0130748
0.0190615
0.0211483
0.0190939
0.0144931
0.00991878
0.0070036
0.00521201
0.0025092
-0.00248219
-0.00869822
-0.0131704
-0.0134755
-0.00987257
-0.00521198
-0.00252243
-0.00239838
-0.00270094
-0.000542933
0.00557808
0.0150658
0.0260401
0.0366542
0.0459031
0.0537242
0.0603923
0.0655485