/*--------------------------------*- C++ -*----------------------------------*\
  =========                 |
  \\      /  F ield         | OpenFOAM: The Open Source CFD Toolbox
   \\    /   O peration     | Website:  https://openfoam.org
    \\  /    A nd           | Version:  10
     \\/     M anipulation  |
\*---------------------------------------------------------------------------*/
FoamFile
{
    format      ascii;
    class       volScalarField;
    location    "72";
    object      h;
}
// * * * * * * * * * * * * * * * * * * * * * * * * * * * * * * * * * * * * * //

dimensions      [0 1 0 0 0 0 0];

internalField   nonuniform List<scalar> 
10000
(
-0.00142455
-0.00417019
-0.00661734
-0.00859919
-0.0100487
-0.0110058
-0.0115565
-0.0118201
-0.0119697
-0.0121952
-0.0126033
-0.0132384
-0.0140625
-0.0148967
-0.0155356
-0.0159812
-0.0164671
-0.0172023
-0.0181601
-0.0190637
-0.0195299
-0.0192851
-0.0184433
-0.0175923
-0.0173707
-0.0178649
-0.0186042
-0.0190474
-0.0189264
-0.0183484
-0.0177515
-0.0176044
-0.0179862
-0.0184862
-0.0186405
-0.0185078
-0.0186039
-0.0192644
-0.0202751
-0.0211047
-0.0212904
-0.0206016
-0.0189678
-0.0164167
-0.0131287
-0.00942769
-0.00568174
-0.00229043
0.000321973
0.00176169
0.00176151
0.000321459
-0.00229119
-0.00568261
-0.00942855
-0.0131295
-0.0164173
-0.0189683
-0.0206019
-0.0212905
-0.0211046
-0.0202748
-0.019264
-0.0186035
-0.0185076
-0.0186405
-0.0184864
-0.0179863
-0.0176045
-0.0177516
-0.0183485
-0.0189266
-0.0190476
-0.0186042
-0.0178647
-0.0173705
-0.0175922
-0.0184434
-0.0192853
-0.0195301
-0.0190637
-0.0181598
-0.0172019
-0.0164669
-0.0159812
-0.0155357
-0.0148967
-0.0140623
-0.0132382
-0.0126032
-0.0121952
-0.0119698
-0.0118202
-0.0115565
-0.0110058
-0.0100487
-0.00859923
-0.00661741
-0.00417026
-0.00142458
-0.00417019
-0.0122111
-0.0193825
-0.0251854
-0.0294016
-0.0321257
-0.0336061
-0.0342204
-0.0345237
-0.0351048
-0.0362653
-0.0380858
-0.040417
-0.0427544
-0.0445623
-0.045897
-0.0474218
-0.049672
-0.0525046
-0.0551097
-0.0564234
-0.0557024
-0.0532898
-0.050866
-0.0502538
-0.0516967
-0.053844
-0.0551388
-0.0547994
-0.0531238
-0.0513847
-0.0509645
-0.0521165
-0.0536478
-0.0541845
-0.0538648
-0.0541669
-0.0560617
-0.058933
-0.0612458
-0.0616631
-0.0595196
-0.0546114
-0.047024
-0.0372965
-0.0263891
-0.015389
-0.00546194
0.00216669
0.00636436
0.00636384
0.00216521
-0.00546411
-0.0153916
-0.0263917
-0.0372988
-0.047026
-0.0546129
-0.0595206
-0.0616634
-0.0612453
-0.058932
-0.0560604
-0.0541657
-0.0538641
-0.0541844
-0.0536481
-0.0521169
-0.0509648
-0.051385
-0.0531242
-0.0547999
-0.0551391
-0.0538439
-0.0516962
-0.050253
-0.0508655
-0.05329
-0.0557029
-0.0564239
-0.0551096
-0.0525039
-0.0496711
-0.0474212
-0.045897
-0.0445625
-0.0427544
-0.0404166
-0.0380853
-0.036265
-0.0351048
-0.034524
-0.0342207
-0.0336063
-0.0321257
-0.0294016
-0.0251855
-0.0193826
-0.0122113
-0.00417025
-0.00661734
-0.0193825
-0.0307701
-0.039957
-0.0465332
-0.0505859
-0.0525051
-0.0529791
-0.0530343
-0.0537005
-0.0554248
-0.058196
-0.0616683
-0.0650923
-0.0677998
-0.0700176
-0.0727408
-0.0766043
-0.0811903
-0.0852083
-0.0871367
-0.0859766
-0.0823156
-0.0787047
-0.0778834
-0.0801914
-0.08356
-0.0856127
-0.085135
-0.082558
-0.0798561
-0.0792345
-0.0811538
-0.0837626
-0.0848604
-0.0845806
-0.0851645
-0.0880911
-0.0923862
-0.0956646
-0.0958739
-0.0920163
-0.0838045
-0.0713993
-0.0556754
-0.038171
-0.0206178
-0.00484859
0.00723001
0.0138623
0.0138615
0.00722774
-0.00485194
-0.0206217
-0.038175
-0.0556791
-0.0714025
-0.083807
-0.0920179
-0.0958744
-0.0956639
-0.0923846
-0.088089
-0.0851627
-0.0845795
-0.0848602
-0.0837629
-0.0811542
-0.079235
-0.0798566
-0.0825586
-0.0851356
-0.085613
-0.0835598
-0.0801906
-0.0778824
-0.078704
-0.0823157
-0.0859772
-0.0871371
-0.0852081
-0.0811894
-0.0766032
-0.0727401
-0.0700174
-0.0677999
-0.0650922
-0.061668
-0.0581954
-0.0554244
-0.0537005
-0.0530347
-0.0529795
-0.0525055
-0.0505861
-0.0465333
-0.0399573
-0.0307704
-0.0193826
-0.00661741
-0.00859919
-0.0251854
-0.039957
-0.0517868
-0.0600409
-0.0647389
-0.0663965
-0.0660702
-0.065335
-0.0656777
-0.067633
-0.0709816
-0.0751157
-0.0791343
-0.082431
-0.0854959
-0.0895358
-0.0950563
-0.101217
-0.106312
-0.108604
-0.107088
-0.102626
-0.0983723
-0.0976364
-0.100759
-0.105152
-0.107874
-0.107403
-0.104247
-0.100902
-0.100244
-0.102961
-0.106718
-0.108632
-0.108735
-0.109746
-0.113445
-0.118541
-0.122008
-0.121321
-0.115333
-0.103783
-0.0869477
-0.0659901
-0.0429034
-0.0199199
0.00062176
0.0163031
0.024895
0.024894
0.0163003
0.000617579
-0.0199248
-0.0429085
-0.0659949
-0.0869519
-0.103786
-0.115335
-0.121322
-0.122007
-0.118539
-0.113443
-0.109743
-0.108734
-0.108632
-0.106718
-0.102962
-0.100245
-0.100903
-0.104247
-0.107403
-0.107874
-0.105152
-0.100758
-0.0976354
-0.0983715
-0.102625
-0.107088
-0.108604
-0.106312
-0.101216
-0.0950554
-0.0895349
-0.0854953
-0.0824306
-0.0791342
-0.0751155
-0.0709814
-0.0676329
-0.0656778
-0.0653353
-0.0660708
-0.0663972
-0.0647394
-0.0600414
-0.0517872
-0.0399573
-0.0251855
-0.00859922
-0.0100487
-0.0294016
-0.0465332
-0.0600409
-0.0690736
-0.073573
-0.0741936
-0.0723807
-0.0702434
-0.0696738
-0.0712764
-0.0746351
-0.0789138
-0.0831261
-0.0867801
-0.0905963
-0.0958878
-0.102958
-0.110544
-0.116588
-0.119238
-0.117585
-0.11277
-0.108374
-0.108037
-0.112053
-0.117463
-0.120922
-0.120681
-0.117314
-0.113725
-0.11333
-0.117034
-0.122152
-0.125235
-0.126098
-0.127637
-0.131747
-0.136894
-0.139657
-0.137302
-0.128733
-0.11385
-0.093113
-0.0679258
-0.0405849
-0.0136329
0.0102988
0.0284966
0.0384432
0.0384421
0.0284936
0.0102942
-0.0136384
-0.0405907
-0.0679314
-0.0931178
-0.113854
-0.128736
-0.137303
-0.139656
-0.136892
-0.131745
-0.127634
-0.126095
-0.125234
-0.122151
-0.117033
-0.11333
-0.113725
-0.117314
-0.120681
-0.120921
-0.117462
-0.112052
-0.108036
-0.108373
-0.112769
-0.117584
-0.119237
-0.116587
-0.110544
-0.102957
-0.0958871
-0.0905953
-0.0867793
-0.0831257
-0.0789138
-0.0746355
-0.0712767
-0.0696739
-0.0702436
-0.0723812
-0.0741944
-0.0735739
-0.0690744
-0.0600414
-0.0465333
-0.0294016
-0.0100487
-0.0110058
-0.0321257
-0.0505859
-0.0647389
-0.073573
-0.077015
-0.0758963
-0.0720051
-0.0678501
-0.0656206
-0.0660551
-0.0687147
-0.072666
-0.0768402
-0.0807327
-0.085119
-0.0913546
-0.0996734
-0.108584
-0.115736
-0.119061
-0.117622
-0.112787
-0.108538
-0.108829
-0.113965
-0.120679
-0.1252
-0.125523
-0.122317
-0.118907
-0.119199
-0.124279
-0.131154
-0.135846
-0.13781
-0.139865
-0.143907
-0.148302
-0.149493
-0.144773
-0.133267
-0.115164
-0.0911914
-0.0629589
-0.0329065
-0.00367212
0.0220657
0.0415438
0.0521603
0.0521593
0.0415409
0.0220612
-0.00367761
-0.0329124
-0.0629648
-0.0911966
-0.115168
-0.13327
-0.144773
-0.149492
-0.1483
-0.143905
-0.139863
-0.137807
-0.135844
-0.131152
-0.124278
-0.119199
-0.118907
-0.122317
-0.125523
-0.125199
-0.120678
-0.113964
-0.108828
-0.108537
-0.112786
-0.117621
-0.11906
-0.115735
-0.108583
-0.0996734
-0.0913542
-0.0851181
-0.0807317
-0.0768397
-0.0726661
-0.0687154
-0.0660559
-0.0656211
-0.0678505
-0.0720057
-0.0758973
-0.0770162
-0.0735739
-0.0647394
-0.0505861
-0.0321257
-0.0110058
-0.0115565
-0.0336061
-0.0525051
-0.0663965
-0.0741936
-0.0758963
-0.0725381
-0.0661494
-0.0594577
-0.0548573
-0.0533487
-0.0546915
-0.0579712
-0.0619758
-0.0659969
-0.0706743
-0.0773917
-0.086539
-0.0966559
-0.105148
-0.109537
-0.108639
-0.103975
-0.0999751
-0.101013
-0.107523
-0.115956
-0.122
-0.123303
-0.12067
-0.117904
-0.119369
-0.126274
-0.135323
-0.142021
-0.145345
-0.147828
-0.151301
-0.154194
-0.153057
-0.145418
-0.130772
-0.109724
-0.0833525
-0.0534304
-0.0223579
0.00737134
0.0332855
0.0528027
0.0634136
0.0634128
0.0528003
0.0332816
0.0073664
-0.0223635
-0.0534361
-0.0833577
-0.109728
-0.130774
-0.145419
-0.153057
-0.154192
-0.151299
-0.147826
-0.145342
-0.142018
-0.135321
-0.126272
-0.119368
-0.117903
-0.120669
-0.123302
-0.121999
-0.115954
-0.107522
-0.101012
-0.0999745
-0.103974
-0.108638
-0.109536
-0.105148
-0.0966556
-0.0865391
-0.0773916
-0.0706739
-0.0659964
-0.0619754
-0.0579713
-0.0546921
-0.0533497
-0.0548583
-0.0594586
-0.0661504
-0.0725391
-0.0758973
-0.0741944
-0.0663972
-0.0525055
-0.0336063
-0.0115565
-0.0118201
-0.0342204
-0.0529791
-0.0660702
-0.0723807
-0.0720051
-0.0661494
-0.0569986
-0.047405
-0.0399641
-0.0360495
-0.035716
-0.0380608
-0.0416614
-0.0455363
-0.050139
-0.0569062
-0.0665171
-0.0776771
-0.0875544
-0.0931494
-0.0929312
-0.0885379
-0.0848408
-0.0866551
-0.0946357
-0.10502
-0.112925
-0.115606
-0.114021
-0.112433
-0.115561
-0.124648
-0.136118
-0.145024
-0.149803
-0.152551
-0.154996
-0.155778
-0.151764
-0.140875
-0.123104
-0.0995826
-0.0718083
-0.04166
-0.0113051
0.0171508
0.0416808
0.0600808
0.070069
0.0700684
0.060079
0.0416778
0.0171468
-0.0113097
-0.0416648
-0.0718129
-0.0995863
-0.123106
-0.140876
-0.151764
-0.155777
-0.154995
-0.152549
-0.1498
-0.14502
-0.136114
-0.124645
-0.115559
-0.112431
-0.114019
-0.115605
-0.112924
-0.105019
-0.0946349
-0.0866545
-0.0848403
-0.0885373
-0.0929305
-0.0931486
-0.0875536
-0.0776766
-0.0665171
-0.0569065
-0.0501394
-0.0455366
-0.0416614
-0.0380608
-0.0357163
-0.0360504
-0.0399655
-0.0474065
-0.0569999
-0.0661504
-0.0720057
-0.0723812
-0.0660708
-0.0529795
-0.0342207
-0.0118202
-0.0119697
-0.0345237
-0.0530343
-0.065335
-0.0702434
-0.0678501
-0.0594577
-0.047405
-0.03473
-0.0242989
-0.0178688
-0.0156995
-0.0167887
-0.019512
-0.0227453
-0.0268718
-0.0334001
-0.043248
-0.0552181
-0.0662096
-0.0727549
-0.0730749
-0.0689463
-0.0655649
-0.0680615
-0.0773399
-0.0895678
-0.0993999
-0.103747
-0.1037
-0.103858
-0.109095
-0.120568
-0.134472
-0.145518
-0.151609
-0.154324
-0.155303
-0.153548
-0.146417
-0.132322
-0.111791
-0.0865258
-0.0584655
-0.0295383
-0.00153106
0.0240301
0.045757
0.0619904
0.0707971
0.0707967
0.0619893
0.0457551
0.0240275
-0.00153425
-0.0295418
-0.058469
-0.0865288
-0.111793
-0.132323
-0.146418
-0.153548
-0.155302
-0.154323
-0.151607
-0.145515
-0.134468
-0.120564
-0.109092
-0.103856
-0.103698
-0.103746
-0.0993989
-0.0895671
-0.0773395
-0.0680613
-0.0655648
-0.0689463
-0.073075
-0.0727548
-0.0662092
-0.0552177
-0.0432479
-0.0334006
-0.0268727
-0.0227463
-0.0195126
-0.0167889
-0.0156998
-0.0178695
-0.0243002
-0.0347317
-0.0474065
-0.0594586
-0.0678505
-0.0702436
-0.0653353
-0.0530347
-0.034524
-0.0119698
-0.0121952
-0.0351048
-0.0537005
-0.0656777
-0.0696738
-0.0656206
-0.0548573
-0.0399641
-0.0242989
-0.0110427
-0.00223145
0.00185001
0.00239349
0.00111175
-0.000963683
-0.00429692
-0.0104243
-0.0203159
-0.0327023
-0.0442052
-0.0510772
-0.0515189
-0.0474854
-0.0443007
-0.0471925
-0.0573048
-0.0709295
-0.0824813
-0.0886326
-0.0905448
-0.0929266
-0.100533
-0.114317
-0.130343
-0.143144
-0.150152
-0.152414
-0.15153
-0.147023
-0.136881
-0.120043
-0.097529
-0.0715488
-0.0444328
-0.0180939
0.00614962
0.0274591
0.0452048
0.0583957
0.0655529
0.0655528
0.0583953
0.0452042
0.0274581
0.00614815
-0.0180957
-0.0444348
-0.0715507
-0.0975306
-0.120044
-0.136882
-0.147024
-0.15153
-0.152413
-0.15015
-0.143141
-0.130339
-0.114313
-0.10053
-0.0929238
-0.0905427
-0.0886313
-0.0824807
-0.0709294
-0.057305
-0.0471928
-0.0443011
-0.047486
-0.0515197
-0.0510779
-0.0442056
-0.0327023
-0.020316
-0.0104247
-0.00429784
-0.000964864
0.00111071
0.00239281
0.00184955
-0.00223205
-0.0110437
-0.0243002
-0.0399655
-0.0548583
-0.0656211
-0.0696739
-0.0656778
-0.0537005
-0.0351048
-0.0121952
-0.0126033
-0.0362653
-0.0554248
-0.067633
-0.0712764
-0.0660551
-0.0533487
-0.0360495
-0.0178688
-0.00223145
0.00870087
0.0147291
0.0171991
0.0177357
0.0170934
0.0146852
0.00907769
-0.000548229
-0.012738
-0.0239186
-0.0303149
-0.0303396
-0.0261274
-0.0228935
-0.0257192
-0.0359661
-0.0502683
-0.0630936
-0.0710266
-0.0751888
-0.0800712
-0.0899858
-0.105587
-0.122997
-0.136828
-0.144171
-0.145549
-0.142549
-0.135312
-0.122568
-0.103803
-0.0804333
-0.0550371
-0.0301949
-0.00770429
0.0116291
0.027675
0.0405893
0.0501056
0.0552743
0.0552745
0.050106
0.0405898
0.0276755
0.0116295
-0.00770423
-0.0301952
-0.0550378
-0.0804343
-0.103804
-0.12257
-0.135314
-0.14255
-0.145549
-0.144169
-0.136826
-0.122995
-0.105584
-0.0899827
-0.0800683
-0.0751865
-0.0710253
-0.0630933
-0.0502688
-0.035967
-0.0257202
-0.0228945
-0.0261285
-0.0303408
-0.0303161
-0.0239196
-0.0127386
-0.000548498
0.00907746
0.0146847
0.0170925
0.0177346
0.0171979
0.0147282
0.0087002
-0.00223205
-0.0178695
-0.0360504
-0.0533497
-0.0660559
-0.0712767
-0.0676329
-0.0554244
-0.036265
-0.0126032
-0.0132384
-0.0380858
-0.058196
-0.0709816
-0.0746351
-0.0687147
-0.0546915
-0.035716
-0.0156995
0.00185001
0.0147291
0.0227689
0.0273034
0.0297078
0.0304154
0.0288231
0.0237774
0.0147445
0.00335474
-0.00678003
-0.012082
-0.0113226
-0.00675859
-0.00326802
-0.00557114
-0.015216
-0.0293797
-0.0428983
-0.0524496
-0.0589887
-0.066419
-0.0782605
-0.0948023
-0.112467
-0.126281
-0.133197
-0.133262
-0.128039
-0.118316
-0.103627
-0.0839937
-0.0611155
-0.037735
-0.0164692
0.00112462
0.0147518
0.0249233
0.0325174
0.0379874
0.0409628
0.0409631
0.0379883
0.0325189
0.0249252
0.0147538
0.00112649
-0.0164678
-0.0377344
-0.0611157
-0.0839948
-0.103629
-0.118319
-0.128041
-0.133263
-0.133198
-0.12628
-0.112466
-0.0948005
-0.0782582
-0.0664165
-0.0589865
-0.0524482
-0.042898
-0.0293804
-0.0152175
-0.00557285
-0.00326962
-0.00676
-0.0113239
-0.0120833
-0.00678133
0.00335373
0.014744
0.0237773
0.0288231
0.0304152
0.0297071
0.0273022
0.0227676
0.0147282
0.00184955
-0.0156998
-0.0357163
-0.0546921
-0.0687154
-0.0746355
-0.0709814
-0.0581954
-0.0380853
-0.0132382
-0.0140625
-0.040417
-0.0616683
-0.0751157
-0.0789138
-0.072666
-0.0579712
-0.0380608
-0.0167887
0.00239349
0.0171991
0.0273034
0.0338272
0.037821
0.0394934
0.0384047
0.0338162
0.0255076
0.015198
0.00640083
0.00238051
0.00397432
0.0088787
0.0126885
0.0111601
0.00259496
-0.0108265
-0.0245302
-0.0354452
-0.0442768
-0.0540505
-0.0672099
-0.0836147
-0.100198
-0.112723
-0.118261
-0.116505
-0.109012
-0.0972002
-0.0813961
-0.0621065
-0.0411451
-0.0211691
-0.00457779
0.00743191
0.0150115
0.0191578
0.0213277
0.0226423
0.02335
0.0233504
0.0226437
0.0213299
0.0191608
0.015015
0.00743528
-0.00457499
-0.0211673
-0.0411446
-0.0621074
-0.0813982
-0.0972031
-0.109015
-0.116507
-0.118263
-0.112724
-0.100199
-0.0836145
-0.067209
-0.0540489
-0.0442748
-0.0354436
-0.0245296
-0.0108271
0.0025933
0.0111579
0.0126866
0.00887728
0.0039733
0.00237954
0.00639974
0.015197
0.025507
0.0338161
0.0384052
0.039494
0.037821
0.0338265
0.0273022
0.0171979
0.00239281
-0.0167889
-0.0380608
-0.0579713
-0.0726661
-0.0789138
-0.0751155
-0.061668
-0.0404166
-0.0140623
-0.0148967
-0.0427544
-0.0650923
-0.0791343
-0.0831261
-0.0768402
-0.0619758
-0.0416614
-0.019512
0.00111175
0.0177357
0.0297078
0.037821
0.0428507
0.0449495
0.0439721
0.039605
0.0318791
0.022518
0.0148827
0.0119287
0.0141525
0.019247
0.0232735
0.0224472
0.0149684
0.00243911
-0.0111881
-0.0231657
-0.0339312
-0.0455102
-0.0591393
-0.0742168
-0.0883183
-0.0981896
-0.101286
-0.097135
-0.0873354
-0.0738738
-0.0578019
-0.0400127
-0.0222505
-0.00682063
0.00435876
0.010559
0.0122696
0.0107526
0.00783243
0.00519548
0.00372145
0.00372199
0.00519711
0.00783518
0.0107563
0.0122739
0.0105633
0.00436247
-0.00681806
-0.0222495
-0.0400134
-0.0578042
-0.0738772
-0.0873391
-0.0971385
-0.101289
-0.0981922
-0.0883206
-0.0742186
-0.0591401
-0.0455097
-0.0339296
-0.0231639
-0.0111869
0.00243899
0.0149671
0.0224453
0.0232717
0.0192459
0.014152
0.0119283
0.0148822
0.0225173
0.0318786
0.0396051
0.0439729
0.0449506
0.0428515
0.037821
0.0297071
0.0177346
0.00111071
-0.0195126
-0.0416614
-0.0619754
-0.0768397
-0.0831257
-0.0791341
-0.0650922
-0.0427544
-0.0148967
-0.0155356
-0.0445623
-0.0677998
-0.082431
-0.0867801
-0.0807327
-0.0659969
-0.0455363
-0.0227453
-0.000963683
0.0170934
0.0304154
0.0394934
0.0449495
0.0470061
0.0458076
0.0413549
0.0338509
0.0250046
0.0180436
0.0156702
0.0181094
0.0230567
0.0269496
0.0263864
0.0195489
0.00764648
-0.00587882
-0.0185941
-0.0306825
-0.0431918
-0.0561882
-0.0686513
-0.0788854
-0.0847868
-0.0844258
-0.0773533
-0.0652289
-0.0504897
-0.0347911
-0.0193126
-0.00558485
0.00465502
0.010199
0.0108834
0.00742803
0.0011264
-0.00607937
-0.0121005
-0.0154717
-0.0154711
-0.0120988
-0.00607651
0.00113023
0.00743244
0.0108879
0.0102029
0.0046579
-0.00558356
-0.0193132
-0.0347934
-0.0504933
-0.0652332
-0.0773577
-0.0844302
-0.0847911
-0.0788897
-0.068655
-0.0561905
-0.0431923
-0.0306814
-0.0185922
-0.0058773
0.00764705
0.0195484
0.0263854
0.0269487
0.0230563
0.0181095
0.0156703
0.0180436
0.0250044
0.0338508
0.0413552
0.0458084
0.0470073
0.0449506
0.039494
0.0304152
0.0170925
-0.000964863
-0.0227463
-0.0455366
-0.0659964
-0.0807317
-0.0867793
-0.0824306
-0.0677999
-0.0445625
-0.0155357
-0.0159812
-0.045897
-0.0700176
-0.0854959
-0.0905963
-0.085119
-0.0706743
-0.050139
-0.0268718
-0.00429692
0.0146852
0.0288231
0.0384047
0.0439721
0.0458076
0.0442109
0.0393627
0.0316323
0.0227803
0.0159396
0.0135792
0.0156757
0.0199109
0.0230343
0.0220177
0.0151622
0.00348417
-0.00997424
-0.0230706
-0.0357487
-0.0481635
-0.05935
-0.0679702
-0.0731143
-0.0739296
-0.0692837
-0.0589053
-0.044489
-0.0287363
-0.0137353
-0.000861396
0.00864233
0.0137258
0.0140376
0.0100458
0.00261391
-0.00713792
-0.0174036
-0.0259016
-0.0306938
-0.0306932
-0.0259
-0.017401
-0.0071345
0.00261777
0.0100497
0.0140411
0.0137285
0.00864362
-0.00086185
-0.0137375
-0.0287399
-0.0444934
-0.0589103
-0.0692891
-0.0739353
-0.0731201
-0.0679753
-0.0593536
-0.048165
-0.0357482
-0.023069
-0.00997255
0.00348542
0.015163
0.0220181
0.0230347
0.0199114
0.0156762
0.0135797
0.0159399
0.0227806
0.0316327
0.0393632
0.0442116
0.0458084
0.0439729
0.0384052
0.0288231
0.0146847
-0.00429784
-0.0268727
-0.0501394
-0.0706739
-0.0851181
-0.0905953
-0.0854953
-0.0700174
-0.045897
-0.0159812
-0.0164671
-0.0474218
-0.0727408
-0.0895358
-0.0958878
-0.0913546
-0.0773917
-0.0569062
-0.0334001
-0.0104243
0.00907769
0.0237774
0.0338162
0.039605
0.0413549
0.0393627
0.0339326
0.0256957
0.0165713
0.00959861
0.00694637
0.0082795
0.0112258
0.0128588
0.0106395
0.00318922
-0.00851545
-0.0218014
-0.0348378
-0.0473559
-0.0587213
-0.0671041
-0.0709481
-0.0701358
-0.065102
-0.0556541
-0.0418278
-0.0252911
-0.00877281
0.00543094
0.0158499
0.0215451
0.0221629
0.0182382
0.0108791
0.00102795
-0.0105208
-0.0223219
-0.0321357
-0.0377244
-0.0377239
-0.0321343
-0.0223198
-0.0105182
0.00103076
0.0108819
0.0182407
0.022165
0.0215462
0.0158496
0.00542908
-0.00877588
-0.0252951
-0.0418326
-0.0556597
-0.0651083
-0.0701424
-0.0709542
-0.0671086
-0.0587236
-0.0473562
-0.0348368
-0.0217999
-0.0085138
0.00319103
0.0106414
0.0128606
0.0112272
0.00828043
0.00694682
0.00959886
0.0165717
0.0256963
0.0339333
0.0393632
0.0413552
0.0396051
0.0338161
0.0237773
0.00907746
-0.0104247
-0.0334006
-0.0569065
-0.0773916
-0.0913542
-0.0958871
-0.0895349
-0.0727401
-0.0474212
-0.0164669
-0.0172023
-0.049672
-0.0766043
-0.0950563
-0.102958
-0.0996734
-0.086539
-0.0665171
-0.043248
-0.0203159
-0.000548229
0.0147445
0.0255076
0.0318791
0.0338509
0.0316323
0.0256957
0.0170652
0.00788848
0.00103767
-0.00176233
-0.0012774
1.66619e-05
-0.00041458
-0.00441853
-0.0128106
-0.0245337
-0.0373189
-0.0497231
-0.0613292
-0.0708356
-0.0757148
-0.074271
-0.0671385
-0.0560196
-0.0417495
-0.0247473
-0.00654618
0.0103711
0.0237526
0.032135
0.0348478
0.0321431
0.02536
0.0161972
0.00563533
-0.00594476
-0.0176369
-0.0274835
-0.0331653
-0.0331649
-0.0274825
-0.0176354
-0.00594317
0.00563682
0.0161986
0.0253614
0.0321444
0.0348485
0.0321348
0.0237514
0.0103689
-0.00654914
-0.0247513
-0.0417547
-0.0560259
-0.0671452
-0.0742774
-0.0757197
-0.0708385
-0.0613302
-0.049723
-0.0373181
-0.0245323
-0.0128084
-0.00441564
-0.000411612
1.90821e-05
-0.00127594
-0.00176178
0.00103776
0.00788865
0.0170657
0.0256963
0.0316327
0.0338508
0.0318786
0.025507
0.014744
-0.000548497
-0.020316
-0.0432479
-0.0665171
-0.0865391
-0.0996734
-0.102957
-0.0950554
-0.0766032
-0.0496711
-0.0172019
-0.0181601
-0.0525046
-0.0811903
-0.101217
-0.110544
-0.108584
-0.0966559
-0.0776771
-0.0552181
-0.0327023
-0.012738
0.00335474
0.015198
0.022518
0.0250046
0.0227803
0.0165713
0.00788848
-0.00090221
-0.00722491
-0.00993862
-0.0103125
-0.0109281
-0.0138371
-0.0199909
-0.0294157
-0.0408883
-0.0526193
-0.0636725
-0.0735875
-0.0805441
-0.0814894
-0.0746619
-0.0613873
-0.0445687
-0.0260788
-0.00670077
0.0123445
0.0291121
0.0416359
0.0485294
0.0492937
0.0446052
0.0364327
0.026978
0.0172631
0.00725042
-0.0028045
-0.0114506
-0.0165333
-0.016533
-0.0114499
-0.00280369
0.00725098
0.0172634
0.0269781
0.0364331
0.0446058
0.0492942
0.0485295
0.0416355
0.0291113
0.0123431
-0.00670324
-0.0260827
-0.0445742
-0.0613935
-0.0746679
-0.0814942
-0.0805473
-0.0735894
-0.0636735
-0.0526196
-0.0408876
-0.0294137
-0.0199877
-0.0138335
-0.0109248
-0.0103103
-0.00993768
-0.00722479
-0.000902283
0.00788865
0.0165717
0.0227806
0.0250044
0.0225173
0.015197
0.00335373
-0.0127386
-0.0327023
-0.0552177
-0.0776766
-0.0966556
-0.108583
-0.110544
-0.101216
-0.0811894
-0.0525039
-0.0181598
-0.0190637
-0.0551097
-0.0852083
-0.106312
-0.116588
-0.115736
-0.105148
-0.0875544
-0.0662096
-0.0442052
-0.0239186
-0.00678003
0.00640083
0.0148827
0.0180436
0.0159396
0.00959861
0.00103767
-0.00722491
-0.0130195
-0.0158287
-0.0173695
-0.0202548
-0.0259713
-0.0344386
-0.044752
-0.0555002
-0.0654783
-0.074393
-0.081878
-0.0857709
-0.0826658
-0.0707902
-0.052073
-0.0305065
-0.00894157
0.0115691
0.0303316
0.0462127
0.0577369
0.0636318
0.0634311
0.0579946
0.0496832
0.0410913
0.0333293
0.0260214
0.0187453
0.0122696
0.00834844
0.00834865
0.01227
0.0187456
0.0260211
0.0333286
0.0410905
0.0496828
0.0579947
0.0634316
0.0636324
0.0577376
0.0462134
0.030332
0.0115684
-0.00894394
-0.0305106
-0.0520781
-0.0707954
-0.0826704
-0.0857745
-0.081881
-0.0743955
-0.0654801
-0.0555008
-0.0447509
-0.0344358
-0.0259674
-0.0202509
-0.0173665
-0.0158269
-0.0130189
-0.00722479
0.00103776
0.00959886
0.0159399
0.0180436
0.0148822
0.00639974
-0.00678133
-0.0239196
-0.0442056
-0.0662092
-0.0875536
-0.105148
-0.115735
-0.116587
-0.106312
-0.0852081
-0.0551096
-0.0190637
-0.0195299
-0.0564234
-0.0871367
-0.108604
-0.119238
-0.119061
-0.109537
-0.0931494
-0.0727549
-0.0510772
-0.0303149
-0.012082
0.00238051
0.0119287
0.0156702
0.0135792
0.00694637
-0.00176233
-0.00993862
-0.0158287
-0.019439
-0.0227783
-0.0283861
-0.0371466
-0.0479118
-0.0588133
-0.068287
-0.0758019
-0.0818207
-0.0862354
-0.0867581
-0.0797931
-0.063559
-0.0404439
-0.0153741
0.00791143
0.0281894
0.0454646
0.059617
0.0698192
0.074949
0.0744523
0.069133
0.061485
0.0543659
0.0490365
0.0449213
0.0409759
0.0371945
0.034758
0.0347581
0.0371947
0.0409758
0.0449207
0.0490354
0.0543649
0.0614844
0.0691331
0.0744531
0.0749502
0.0698209
0.0596191
0.0454666
0.0281905
0.0079108
-0.0153766
-0.0404476
-0.0635632
-0.0797973
-0.0867622
-0.0862395
-0.0818247
-0.0758054
-0.068289
-0.0588133
-0.0479098
-0.0371429
-0.0283819
-0.0227744
-0.0194361
-0.0158269
-0.00993768
-0.00176178
0.00694682
0.0135797
0.0156703
0.0119283
0.00237954
-0.0120833
-0.0303161
-0.0510779
-0.0727548
-0.0931486
-0.109536
-0.11906
-0.119237
-0.108604
-0.0871371
-0.0564239
-0.0195301
-0.0192851
-0.0557024
-0.0859766
-0.107088
-0.117585
-0.117622
-0.108639
-0.0929312
-0.0730749
-0.0515189
-0.0303396
-0.0113226
0.00397432
0.0141525
0.0181094
0.0156757
0.0082795
-0.0012774
-0.0103125
-0.0173695
-0.0227783
-0.0286622
-0.0374118
-0.0493271
-0.062248
-0.0733951
-0.0810914
-0.0854954
-0.0878806
-0.0885858
-0.0854684
-0.074916
-0.0551034
-0.0286802
-0.00129863
0.0225319
0.0414821
0.0563237
0.0680298
0.0765091
0.080842
0.0803322
0.0755476
0.0688764
0.0632957
0.0602636
0.0591628
0.0584523
0.0573667
0.0564457
0.0564458
0.0573669
0.0584522
0.0591623
0.0602628
0.063295
0.0688762
0.075548
0.0803333
0.0808437
0.0765115
0.068033
0.056327
0.0414846
0.0225329
-0.00129948
-0.0286824
-0.0551064
-0.0749196
-0.0854726
-0.0885906
-0.0878857
-0.0855001
-0.0810948
-0.0733964
-0.062247
-0.0493241
-0.0374076
-0.0286578
-0.0227744
-0.0173665
-0.0103103
-0.00127593
0.00828043
0.0156763
0.0181095
0.014152
0.0039733
-0.0113239
-0.0303408
-0.0515197
-0.073075
-0.0929305
-0.108638
-0.117621
-0.117584
-0.107088
-0.0859772
-0.0557029
-0.0192853
-0.0184433
-0.0532898
-0.0823156
-0.102626
-0.11277
-0.112787
-0.103975
-0.0885379
-0.0689463
-0.0474854
-0.0261274
-0.00675859
0.0088787
0.019247
0.0230567
0.0199109
0.0112258
1.66619e-05
-0.0109281
-0.0202548
-0.0283861
-0.0374118
-0.0495326
-0.0645182
-0.0793086
-0.0903157
-0.0957691
-0.0964552
-0.0944537
-0.0907362
-0.0836099
-0.0696497
-0.0469603
-0.0182258
0.0104532
0.0339784
0.0509644
0.0629076
0.0718047
0.0782905
0.081697
0.0812001
0.0770325
0.0712858
0.0669098
0.0655736
0.0667658
0.0686257
0.0697516
0.0700952
0.0700953
0.0697518
0.0686257
0.0667656
0.0655734
0.0669098
0.0712862
0.0770334
0.0812015
0.081699
0.0782933
0.0718084
0.0629115
0.0509678
0.0339805
0.0104538
-0.0182265
-0.046962
-0.0696524
-0.0836138
-0.0907414
-0.0944596
-0.0964609
-0.0957735
-0.0903181
-0.0793087
-0.0645162
-0.0495292
-0.0374076
-0.0283819
-0.0202509
-0.0109248
1.90845e-05
0.0112272
0.0199114
0.0230563
0.0192459
0.00887729
-0.00675999
-0.0261285
-0.047486
-0.0689463
-0.0885373
-0.103974
-0.112786
-0.112769
-0.102625
-0.0823157
-0.05329
-0.0184434
-0.0175923
-0.050866
-0.0787047
-0.0983723
-0.108374
-0.108538
-0.0999751
-0.0848408
-0.0655649
-0.0443007
-0.0228935
-0.00326802
0.0126885
0.0232735
0.0269496
0.0230343
0.0128588
-0.00041458
-0.0138371
-0.0259713
-0.0371466
-0.0493271
-0.0645182
-0.0820319
-0.0980518
-0.108315
-0.110983
-0.107385
-0.100357
-0.091637
-0.0802529
-0.0631675
-0.0384006
-0.00842685
0.0205516
0.0431073
0.057853
0.0668665
0.0729507
0.0773487
0.0796784
0.0790639
0.0753907
0.0703236
0.0666371
0.0661737
0.0686331
0.0720326
0.0745442
0.0756948
0.0756949
0.0745443
0.0720327
0.0686333
0.0661742
0.066638
0.0703247
0.0753919
0.0790653
0.0796803
0.0773515
0.0729544
0.0668706
0.0578567
0.0431101
0.0205535
-0.00842588
-0.0384006
-0.0631688
-0.0802559
-0.0916416
-0.100363
-0.107392
-0.110988
-0.108318
-0.0980532
-0.0820314
-0.0645162
-0.0493241
-0.0371429
-0.0259674
-0.0138335
-0.00041161
0.0128606
0.0230347
0.0269487
0.0232717
0.0126866
-0.00326962
-0.0228945
-0.0443011
-0.0655648
-0.0848403
-0.0999745
-0.108537
-0.108373
-0.0983715
-0.078704
-0.0508655
-0.0175922
-0.0173707
-0.0502538
-0.0778834
-0.0976364
-0.108037
-0.108829
-0.101013
-0.0866551
-0.0680615
-0.0471925
-0.0257192
-0.00557114
0.0111601
0.0224472
0.0263864
0.0220177
0.0106395
-0.00441853
-0.0199909
-0.0344386
-0.0479118
-0.062248
-0.0793086
-0.0980518
-0.114073
-0.122601
-0.121788
-0.11343
-0.101037
-0.0871659
-0.071724
-0.0521912
-0.0264727
0.00340654
0.0315171
0.0524129
0.0647627
0.071005
0.0744209
0.0766687
0.0776815
0.0766698
0.0732495
0.0685932
0.0651481
0.0648237
0.067561
0.0714263
0.0744116
0.0758461
0.0758461
0.0744115
0.0714263
0.0675615
0.0648246
0.0651495
0.0685946
0.0732507
0.0766711
0.0776832
0.0766712
0.0744242
0.0710088
0.0647665
0.0524164
0.0315202
0.00340927
-0.0264707
-0.0521906
-0.0717255
-0.0871696
-0.101042
-0.113436
-0.121793
-0.122605
-0.114076
-0.0980532
-0.0793087
-0.062247
-0.0479098
-0.0344358
-0.0199877
-0.00441564
0.0106414
0.0220181
0.0263855
0.0224453
0.0111579
-0.00557285
-0.0257202
-0.0471928
-0.0680613
-0.0866545
-0.101012
-0.108828
-0.108036
-0.0976354
-0.0778823
-0.050253
-0.0173704
-0.0178649
-0.0516967
-0.0801914
-0.100759
-0.112053
-0.113965
-0.107523
-0.0946357
-0.0773399
-0.0573048
-0.0359661
-0.015216
0.00259496
0.0149684
0.0195489
0.0151622
0.00318922
-0.0128106
-0.0294157
-0.044752
-0.0588133
-0.0733951
-0.0903157
-0.108315
-0.122601
-0.12809
-0.123001
-0.109534
-0.0917822
-0.0730894
-0.0542753
-0.0333709
-0.00813107
0.0200609
0.0458972
0.0642426
0.0738961
0.0774155
0.0781954
0.0780927
0.077394
0.0755817
0.0721506
0.0677672
0.0643902
0.0638188
0.0661749
0.0696852
0.072393
0.0736646
0.0736644
0.0723926
0.0696851
0.0661753
0.0638199
0.0643916
0.0677686
0.0721516
0.0755826
0.0773954
0.0780949
0.0781984
0.0774189
0.0738997
0.0642466
0.0459014
0.0200654
-0.00812714
-0.0333684
-0.0542751
-0.0730917
-0.0917865
-0.10954
-0.123006
-0.128095
-0.122605
-0.108318
-0.0903181
-0.0733964
-0.0588134
-0.0447509
-0.0294137
-0.0128084
0.00319102
0.015163
0.0195484
0.0149671
0.0025933
-0.0152175
-0.035967
-0.057305
-0.0773395
-0.0946349
-0.107522
-0.113964
-0.112052
-0.100758
-0.0801905
-0.0516961
-0.0178647
-0.0186042
-0.053844
-0.08356
-0.105152
-0.117463
-0.120679
-0.115956
-0.10502
-0.0895678
-0.0709295
-0.0502683
-0.0293797
-0.0108265
0.00243911
0.00764648
0.00348417
-0.00851545
-0.0245337
-0.0408883
-0.0555002
-0.068287
-0.0810914
-0.0957691
-0.110983
-0.121788
-0.123001
-0.112979
-0.0942802
-0.0714949
-0.0486758
-0.0274866
-0.00648436
0.0167271
0.0415104
0.0634666
0.0781011
0.0844572
0.0850209
0.0829749
0.0801715
0.077282
0.0742506
0.0706263
0.0665837
0.0634305
0.0626308
0.064355
0.0670435
0.0689823
0.0697818
0.0697816
0.0689817
0.0670431
0.0643551
0.0626315
0.0634316
0.0665847
0.0706269
0.0742512
0.0772831
0.0801734
0.0829774
0.0850239
0.0844606
0.0781053
0.0634717
0.0415162
0.0167326
-0.00648029
-0.0274848
-0.0486767
-0.071498
-0.0942849
-0.112984
-0.123006
-0.121793
-0.110988
-0.0957735
-0.0810948
-0.068289
-0.0555008
-0.0408876
-0.0245323
-0.0085138
0.00348542
0.00764705
0.002439
-0.0108271
-0.0293804
-0.0502688
-0.0709294
-0.0895671
-0.105019
-0.115954
-0.120678
-0.117462
-0.105152
-0.0835597
-0.0538439
-0.0186042
-0.0190474
-0.0551388
-0.0856127
-0.107874
-0.120922
-0.1252
-0.122
-0.112925
-0.0993999
-0.0824813
-0.0630936
-0.0428983
-0.0245302
-0.0111881
-0.00587882
-0.00997424
-0.0218014
-0.0373189
-0.0526193
-0.0654783
-0.0758019
-0.0854954
-0.0964552
-0.107385
-0.11343
-0.109534
-0.0942802
-0.0705584
-0.0433832
-0.0173955
0.00503663
0.0248872
0.0446618
0.0644812
0.08105
0.0907971
0.0931476
0.0904007
0.0852815
0.079464
0.0740046
0.0694498
0.065555
0.0620326
0.0594075
0.0586002
0.0596928
0.0613655
0.0622855
0.0624479
0.0624475
0.0622846
0.0613646
0.0596925
0.0586005
0.0594081
0.062033
0.0655553
0.0694503
0.0740056
0.0794657
0.0852836
0.0904031
0.0931505
0.090801
0.0810553
0.0644874
0.044668
0.0248921
0.00503938
-0.0173952
-0.0433852
-0.0705619
-0.0942849
-0.10954
-0.113436
-0.107392
-0.0964609