/*--------------------------------*- C++ -*----------------------------------*\
  =========                 |
  \\      /  F ield         | OpenFOAM: The Open Source CFD Toolbox
   \\    /   O peration     | Website:  https://openfoam.org
    \\  /    A nd           | Version:  10
     \\/     M anipulation  |
\*---------------------------------------------------------------------------*/
FoamFile
{
    format      ascii;
    class       volScalarField;
    location    "45";
    object      h;
}
// * * * * * * * * * * * * * * * * * * * * * * * * * * * * * * * * * * * * * //

dimensions      [0 1 0 0 0 0 0];

internalField   nonuniform List<scalar> 
10000
(
0.00353572
0.0100449
0.015141
0.0185483
0.0205942
0.021973
0.0231932
0.0242212
0.0245824
0.023778
0.0219602
0.0200985
0.0193656
0.0202707
0.021911
0.0225321
0.020891
0.0172904
0.0134912
0.0111298
0.010483
0.010388
0.0095348
0.00767575
0.00559512
0.00414068
0.00345151
0.00319852
0.00289104
0.00236981
0.0016786
0.00110207
0.000992804
0.00130208
0.0014318
0.00105311
0.000709859
0.00090539
0.00132277
0.00130205
0.000995067
0.000984732
0.00130246
0.00140454
0.00122618
0.00115614
0.00130686
0.00139935
0.00134275
0.00126763
0.00126763
0.00134276
0.00139936
0.00130687
0.00115616
0.0012262
0.00140457
0.00130248
0.000984738
0.000995088
0.00130208
0.00132278
0.000905366
0.000709836
0.00105311
0.0014318
0.00130203
0.000992717
0.001102
0.00167854
0.00236972
0.00289091
0.00319837
0.00345132
0.00414043
0.00559485
0.00767552
0.00953461
0.0103878
0.0104826
0.0111293
0.0134907
0.0172902
0.020891
0.0225321
0.0219109
0.0202704
0.0193653
0.0200985
0.0219606
0.0237787
0.0245832
0.0242219
0.0231938
0.0219737
0.0205949
0.0185491
0.0151417
0.0100455
0.00353595
0.0100449
0.0285126
0.0428669
0.05231
0.0578624
0.0615562
0.0648766
0.0677651
0.068831
0.0666503
0.0617115
0.0568359
0.0553963
0.0587596
0.0642227
0.0666908
0.0625537
0.0526404
0.0420425
0.0355222
0.0338755
0.0337557
0.0313696
0.0260241
0.0199641
0.0156017
0.0133661
0.0123764
0.0112346
0.00942853
0.00711304
0.00512007
0.00448096
0.00503078
0.00507779
0.00369456
0.00244288
0.00273517
0.00365964
0.00336958
0.00230431
0.00210629
0.00283512
0.00297091
0.00234938
0.00207376
0.00241899
0.00260132
0.00240204
0.00219423
0.00219425
0.00240207
0.00260134
0.00241901
0.00207381
0.00234946
0.00297098
0.00283517
0.00210634
0.00230439
0.00336969
0.00365971
0.00273516
0.00244289
0.00369465
0.00507788
0.00503074
0.00448085
0.00512001
0.007113
0.00942842
0.0112344
0.0123761
0.0133657
0.0156011
0.0199635
0.0260235
0.0313691
0.0337551
0.0338745
0.0355208
0.0420413
0.0526399
0.0625538
0.0666909
0.0642225
0.0587589
0.0553958
0.0568361
0.0617126
0.066652
0.0688329
0.0677669
0.0648783
0.0615579
0.0578643
0.0523121
0.042869
0.0285142
0.0100455
0.015141
0.0428669
0.0641053
0.0776273
0.0851462
0.0899385
0.0944171
0.0985935
0.100287
0.0973333
0.0905446
0.0842821
0.0837961
0.0910564
0.101668
0.107558
0.102973
0.0891016
0.0738383
0.0645894
0.0626
0.0628546
0.0594446
0.0512105
0.0415634
0.0342208
0.0300023
0.0276742
0.0251093
0.021392
0.0168635
0.0128519
0.0109436
0.0108303
0.00998826
0.00708504
0.00447289
0.00421202
0.00489131
0.00385097
0.00177186
0.00105517
0.00169433
0.00149426
0.000284299
-0.000304383
2.01777e-06
5.71958e-05
-0.000334152
-0.000613517
-0.00061349
-0.000334113
5.72077e-05
2.03051e-06
-0.000304323
0.000284386
0.00149434
0.00169439
0.00105525
0.00177198
0.00385113
0.00489144
0.0042121
0.00447302
0.00708529
0.00998853
0.0108304
0.0109437
0.0128521
0.0168638
0.0213922
0.0251093
0.0276741
0.0300021
0.0342204
0.0415629
0.0512101
0.0594443
0.0628541
0.0625988
0.0645878
0.0738368
0.0891011
0.102973
0.107559
0.101668
0.0910555
0.0837952
0.0842822
0.0905459
0.0973356
0.10029
0.0985957
0.0944191
0.0899405
0.0851486
0.0776301
0.0641081
0.042869
0.0151417
0.0185483
0.05231
0.0776273
0.0929539
0.100635
0.10504
0.109423
0.113947
0.115864
0.11255
0.10515
0.0991791
0.101303
0.113732
0.13057
0.141343
0.138552
0.123592
0.106338
0.0960988
0.0944822
0.0955052
0.0917308
0.0815086
0.0689838
0.0587722
0.0521857
0.0478936
0.0433172
0.0371257
0.0298931
0.023376
0.019502
0.0178053
0.0152929
0.0105236
0.00628606
0.00491068
0.00462341
0.00247632
-0.000664632
-0.00208245
-0.00198056
-0.00281287
-0.00461257
-0.0055042
-0.00543067
-0.00570176
-0.00628451
-0.00652483
-0.0065248
-0.00628449
-0.00570179
-0.00543069
-0.00550418
-0.00461254
-0.00281287
-0.00198054
-0.00208239
-0.000664536
0.00247646
0.00462358
0.00491085
0.00628629
0.010524
0.0152934
0.0178057
0.0195024
0.0233766
0.0298938
0.0371263
0.0433177
0.0478941
0.052186
0.0587723
0.0689838
0.0815086
0.091731
0.0955051
0.0944813
0.0960975
0.106337
0.123592
0.138553
0.141343
0.13057
0.113731
0.101301
0.099179
0.105151
0.112552
0.115866
0.113949
0.109424
0.105042
0.100637
0.0929566
0.0776301
0.0523122
0.0185492
0.0205942
0.0578624
0.0851462
0.100635
0.107177
0.109932
0.112823
0.116261
0.117284
0.113227
0.105657
0.10089
0.106361
0.124063
0.146907
0.162863
0.163317
0.149715
0.132873
0.123114
0.122333
0.124262
0.120784
0.109834
0.0956987
0.0833223
0.0745293
0.0682112
0.0616563
0.0531595
0.0434697
0.03469
0.0288255
0.0252343
0.0208719
0.0145128
0.00898242
0.00643812
0.00491981
0.00174471
-0.00207367
-0.00400767
-0.00458442
-0.00607295
-0.00820623
-0.00919561
-0.00939936
-0.0100695
-0.0107575
-0.0108221
-0.010822
-0.0107575
-0.0100696
-0.00939942
-0.00919564
-0.0082063
-0.00607304
-0.00458444
-0.00400765
-0.00207365
0.0017448
0.00492
0.00643837
0.00898274
0.0145132
0.0208725
0.0252349
0.0288262
0.0346908
0.0434705
0.0531604
0.0616571
0.068212
0.07453
0.0833228
0.095699
0.109834
0.120784
0.124263
0.122333
0.123114
0.132873
0.149715
0.163318
0.162864
0.146907
0.124063
0.10636
0.10089
0.105658
0.113229
0.117286
0.116262
0.112824
0.109933
0.107178
0.100637
0.0851486
0.0578643
0.020595
0.021973
0.0615562
0.0899385
0.10504
0.109932
0.110202
0.110262
0.110822
0.10915
0.102989
0.0944353
0.0902813
0.0981128
0.119439
0.146461
0.166484
0.170482
0.159898
0.145406
0.137347
0.137798
0.140865
0.138695
0.128824
0.115008
0.101994
0.0920598
0.0845199
0.0768274
0.0670632
0.0560312
0.04608
0.0389874
0.033938
0.0282501
0.0212261
0.0153345
0.0121385
0.00968284
0.00602943
0.00232055
0.000418076
-0.000607092
-0.00245525
-0.0044283
-0.00515172
-0.00550092
-0.00646764
-0.00709493
-0.00686758
-0.00686758
-0.00709497
-0.00646773
-0.00550099
-0.00515178
-0.00442843
-0.00245538
-0.000607117
0.000418083
0.00232051
0.00602946
0.00968304
0.0121388
0.0153348
0.0212265
0.0282506
0.0339387
0.038988
0.0460807
0.0560319
0.0670638
0.076828
0.0845205
0.0920602
0.101995
0.115008
0.128824
0.138695
0.140866
0.137798
0.137346
0.145406
0.159898
0.170484
0.166486
0.146462
0.119439
0.0981124
0.0902813
0.0944363
0.102991
0.109152
0.110823
0.110263
0.110203
0.109933
0.105042
0.0899406
0.0615579
0.0219737
0.0231932
0.0648766
0.0944171
0.109423
0.112823
0.110262
0.106374
0.10215
0.0955717
0.0852451
0.0739788
0.0688681
0.077034
0.0992554
0.127477
0.14927
0.156101
0.149449
0.138832
0.133631
0.135937
0.140703
0.141227
0.134781
0.123992
0.112877
0.103872
0.0968018
0.0895977
0.0803748
0.0698161
0.0603607
0.0532938
0.0476577
0.0415138
0.0349289
0.0297106
0.0265044
0.0235624
0.0200239
0.0171477
0.0157715
0.01458
0.0127115
0.0113282
0.0111279
0.0107708
0.00968299
0.00926018
0.00979455
0.00979454
0.00926014
0.00968295
0.0107708
0.0111278
0.0113281
0.0127114
0.0145802
0.0157717
0.0171478
0.0200241
0.0235627
0.0265049
0.0297109
0.0349293
0.0415143
0.0476582
0.0532943
0.0603611
0.0698163
0.0803749
0.0895976
0.0968017
0.103872
0.112877
0.123991
0.13478
0.141227
0.140703
0.135937
0.13363
0.138832
0.149449
0.156103
0.149272
0.127478
0.0992559
0.077034
0.0688683
0.0739798
0.0852466
0.0955733
0.102151
0.106375
0.110263
0.112824
0.109424
0.0944191
0.0648783
0.0231938
0.0242212
0.0677651
0.0985935
0.113947
0.116261
0.110822
0.10215
0.091545
0.0781752
0.0619338
0.0465366
0.0391589
0.0457992
0.0662864
0.0927603
0.113973
0.122787
0.120702
0.115262
0.11405
0.118917
0.126003
0.13055
0.129834
0.124869
0.118445
0.112746
0.108116
0.103209
0.0964171
0.0881721
0.080789
0.0748902
0.0693993
0.0634488
0.057974
0.0539719
0.0509873
0.0476894
0.0444449
0.0425899
0.0417644
0.0404009
0.0386088
0.0378937
0.0381337
0.0377432
0.0366633
0.0364723
0.0371794
0.0371794
0.0364723
0.0366634
0.0377433
0.0381339
0.0378938
0.038609
0.0404013
0.0417649
0.0425903
0.0444454
0.0476902
0.0509882
0.0539726
0.0579746
0.0634494
0.0693999
0.0748906
0.0807889
0.0881717
0.0964164
0.103208
0.108115
0.112745
0.118444
0.124867
0.129832
0.130549
0.126002
0.118916
0.11405
0.115261
0.120702
0.122788
0.113975
0.0927617
0.0662871
0.0457993
0.0391591
0.0465373
0.0619351
0.0781768
0.0915463
0.102151
0.110823
0.116262
0.113949
0.0985957
0.0677669
0.024222
0.0245824
0.068831
0.100287
0.115864
0.117284
0.10915
0.0955717
0.0781752
0.0575198
0.0350442
0.0154428
0.00564068
0.0100503
0.02742
0.0503849
0.0695353
0.0798053
0.0827448
0.0834964
0.0871835
0.095055
0.104752
0.113914
0.120128
0.122635
0.122726
0.121923
0.1209
0.119188
0.115708
0.110689
0.106028
0.101604
0.0962619
0.0904217
0.0858718
0.0827668
0.07956
0.0755047
0.0721804
0.070871
0.0700699
0.0681868
0.0662964
0.0659547
0.0662277
0.0656193
0.0646098
0.064563
0.0651947
0.0651948
0.0645631
0.06461
0.0656197
0.0662282
0.0659552
0.0662971
0.0681877
0.0700708
0.0708719
0.0721815
0.075506
0.0795612
0.0827678
0.0858726
0.0904225
0.0962625
0.101604
0.106028
0.110688
0.115706
0.119186
0.120898
0.121922
0.122724
0.122633
0.120125
0.113912
0.10475
0.0950541
0.0871825
0.0834951
0.0827438
0.079805
0.0695358
0.0503857
0.0274203
0.01005
0.00564026
0.0154428
0.0350451
0.0575213
0.0781767
0.0955732
0.109152
0.117286
0.115866
0.10029
0.068833
0.0245832
0.023778
0.0666503
0.0973333
0.11255
0.113227
0.102989
0.0852451
0.0619338
0.0350442
0.00775181
-0.0142954
-0.0248418
-0.0214493
-0.00681858
0.0122089
0.0285637
0.039751
0.0474811
0.0543697
0.0626766
0.0727551
0.0839673
0.0964892
0.10872
0.118445
0.125243
0.129596
0.132206
0.133573
0.133328
0.131624
0.129597
0.126368
0.120785
0.114566
0.110231
0.107137
0.102864
0.0973503
0.0932378
0.091533
0.0898561
0.0868858
0.0845258
0.0839892
0.0836857
0.0825725
0.0816114
0.0815365
0.0818093
0.0818094
0.0815367
0.0816118
0.082573
0.0836864
0.08399
0.0845268
0.086887
0.0898574
0.0915343
0.0932392
0.0973518
0.102865
0.107138
0.110232
0.114566
0.120785
0.126368
0.129597
0.131623
0.133327
0.133572
0.132204
0.129594
0.12524
0.118442
0.108718
0.0964876
0.0839665
0.0727546
0.0626758
0.0543684
0.0474797
0.03975
0.0285636
0.0122092
-0.0068187
-0.0214502
-0.024843
-0.0142964
0.00775177
0.0350451
0.0619351
0.0852466
0.102991
0.113229
0.112552
0.0973356
0.066652
0.0237787
0.0219602
0.0617115
0.0905446
0.10515
0.105657
0.0944353
0.0739788
0.0465366
0.0154428
-0.0142954
-0.0362354
-0.0452439
-0.0410876
-0.0282463
-0.0130078
0.00022135
0.0115621
0.0229626
0.034653
0.0459196
0.0560736
0.0662511
0.0790753
0.0942948
0.108848
0.120562
0.128782
0.133961
0.137424
0.139623
0.140794
0.141063
0.138791
0.13292
0.126223
0.121729
0.118079
0.112335
0.10516
0.0999502
0.0971836
0.0940193
0.0897127
0.086727
0.0855813
0.0842849
0.0825339
0.0816315
0.0814051
0.0811385
0.0811386
0.0814053
0.0816319
0.0825345
0.0842856
0.0855823
0.0867281
0.089714
0.0940207
0.097185
0.0999516
0.105161
0.112336
0.11808
0.121729
0.126224
0.13292
0.138791
0.141061
0.140792
0.139621
0.137423
0.13396
0.12878
0.120561
0.108846
0.0942938
0.079075
0.0662514
0.0560742
0.0459196
0.0346522
0.0229614
0.0115612
0.000221146
-0.0130075
-0.0282464
-0.0410887
-0.0452456
-0.0362372
-0.0142964
0.0154428
0.0465373
0.0739798
0.0944364
0.105658
0.105151
0.0905459
0.0617126
0.0219606
0.0200985
0.0568359
0.0842821
0.0991791
0.10089
0.0902813
0.0688681
0.0391589
0.00564068
-0.0248418
-0.0452439
-0.0517684
-0.0462632
-0.0350597
-0.0238969
-0.0145368
-0.00455593
0.00840536
0.0225922
0.034419
0.0421737
0.0485321
0.0581817
0.0725763
0.0886012
0.102655
0.113049
0.119667
0.124281
0.128292
0.132166
0.13488
0.134051
0.128788
0.122498
0.118373
0.114466
0.10773
0.0995451
0.0936169
0.0897171
0.0850061
0.0795703
0.076072
0.0741699
0.0717727
0.0694303
0.0685917
0.068159
0.0673344
0.0673345
0.0681593
0.0685922
0.069431
0.0717734
0.0741709
0.0760731
0.0795714
0.0850072
0.0897182
0.0936178
0.0995456
0.10773
0.114466
0.118372
0.122497
0.128786
0.134049
0.134877
0.132164
0.12829
0.124279
0.119666
0.113048
0.102654
0.0886008
0.0725767
0.0581827
0.0485336
0.0421752
0.0344199
0.0225922
0.00840482
-0.00455623
-0.0145364
-0.0238959
-0.0350592
-0.0462637
-0.0517699
-0.0452456
-0.024843
0.00564028
0.0391591
0.0688684
0.0902814
0.10089
0.0991791
0.0842823
0.0568361
0.0200986
0.0193656
0.0553963
0.0837961
0.101303
0.106361
0.0981128
0.077034
0.0457992
0.0100503
-0.0214493
-0.0410876
-0.0462632
-0.0406671
-0.0323722
-0.0265386
-0.0224366
-0.0156644
-0.0033464
0.0111574
0.0216589
0.0255726
0.0265542
0.0307495
0.0415116
0.0563917
0.0708838
0.0824086
0.0900934
0.0957491
0.101764
0.10884
0.114819
0.11673
0.113889
0.109835
0.107446
0.10438
0.0978806
0.0899938
0.0842063
0.0795573
0.0736436
0.0675033
0.0636401
0.0609321
0.0574864
0.0546096
0.0537069
0.0530047
0.0517258
0.0517258
0.053005
0.0537075
0.0546103
0.0574873
0.0609331
0.0636411
0.0675041
0.0736443
0.0795579
0.0842065
0.0899933
0.0978796
0.104379
0.107444
0.109832
0.113886
0.116727
0.114816
0.108837
0.101762
0.0957475
0.0900922
0.0824077
0.0708833
0.0563919
0.0415127
0.0307511
0.0265561
0.0255742
0.02166
0.0111578
-0.0033464
-0.015664
-0.0224353
-0.0265366
-0.0323704
-0.0406664
-0.0462637
-0.0410887
-0.0214502
0.01005
0.0457994
0.0770341
0.0981125
0.10636
0.101302
0.0837953
0.0553958
0.0193654
0.0202707
0.0587596
0.0910564
0.113732
0.124063
0.119439
0.0992554
0.0662864
0.02742
-0.00681858
-0.0282463
-0.0350597
-0.0323722
-0.0293388
-0.0302702
-0.0322924
-0.0294986
-0.0187475
-0.00466827
0.00449631
0.00540298
0.00189593
0.000794238
0.00713779
0.0195288
0.0332908
0.0453072
0.0539759
0.0607817
0.0689377
0.0793889
0.0891022
0.0948381
0.0961341
0.0961704
0.096993
0.0960831
0.0913168
0.085247
0.080636
0.0758965
0.0693875
0.0630305
0.0589032
0.0553767
0.0510035
0.0475935
0.0463749
0.0453069
0.043728
0.043728
0.0453072
0.0463756
0.0475944
0.0510044
0.0553776
0.0589041
0.063031
0.0693877
0.0758964
0.0806353
0.0852455
0.0913146
0.0960806
0.0969901
0.0961669
0.0961304
0.0948345
0.089099
0.0793862
0.0689357
0.0607804
0.0539749
0.0453066
0.0332907
0.0195295
0.00713906
0.000795806
0.00189741
0.005404
0.00449692
-0.00466797
-0.0187473
-0.0294978
-0.0322906
-0.0302677
-0.0293362
-0.0323704
-0.0350592
-0.0282465
-0.00681873
0.0274203
0.0662872
0.099256
0.119439
0.124063
0.113731
0.0910555
0.0587589
0.0202704
0.021911
0.0642227
0.101668
0.13057
0.146907
0.146461
0.127477
0.0927603
0.0503849
0.0122089
-0.0130078
-0.0238969
-0.0265386
-0.0302702
-0.0384023
-0.0464548
-0.04742
-0.0382
-0.0242232
-0.0150139
-0.0146624
-0.019869
-0.0239999
-0.0210395
-0.0112024
0.00148084
0.013726
0.0232891
0.0310958
0.0409005
0.0539
0.066613
0.0759599
0.0818132
0.0866225
0.0911689
0.0929639
0.0907795
0.0874186
0.0845473
0.0801355
0.0734501
0.0670782
0.0625326
0.0580147
0.0526762
0.0485607
0.0466536
0.0450375
0.0432431
0.0432432
0.0450379
0.0466543
0.0485616
0.052677
0.0580154
0.0625331
0.0670783
0.0734497
0.0801345
0.0845457
0.0874161
0.0907765
0.0929607
0.0911655
0.0866188
0.0818096
0.0759568
0.0666106
0.0538984
0.0408995
0.0310953
0.0232889
0.0137259
0.00148113
-0.0112014
-0.0210382
-0.0239988
-0.0198684
-0.0146623
-0.0150141
-0.0242233
-0.0381999
-0.0474193
-0.0464531
-0.0383999
-0.0302676
-0.0265366
-0.023896
-0.0130075
0.0122091
0.0503857
0.0927617
0.127479
0.146462
0.146907
0.13057
0.101668
0.0642225
0.0219109
0.0225321
0.0666908
0.107558
0.141343
0.162863
0.166484
0.14927
0.113973
0.0695353
0.0285637
0.00022135
-0.0145368
-0.0224366
-0.0322924
-0.0464548
-0.059228
-0.0628231
-0.0545929
-0.0402969
-0.0298713
-0.0280204
-0.0323785
-0.0372374
-0.0365249
-0.0292627
-0.0182637
-0.00673188
0.00277477
0.0106377
0.02072
0.0343329
0.0480301
0.0593922
0.0688589
0.07793
0.0858306
0.0902744
0.0910493
0.0909138
0.0902367
0.0867152
0.0804542
0.0744327
0.0695561
0.0640999
0.0578727
0.0530058
0.0502208
0.0479363
0.0459381
0.0459382
0.0479367
0.0502213
0.0530064
0.0578732
0.0641001
0.0695559
0.0744319
0.0804528
0.0867132
0.090234
0.0909105
0.0910458
0.0902711
0.0858274
0.0779268
0.0688561
0.0593904
0.0480293
0.0343329
0.0207204
0.0106382
0.00277542
-0.00673121
-0.0182627
-0.0292612
-0.0365235
-0.0372365
-0.0323784
-0.0280208
-0.0298718
-0.040297
-0.0545926
-0.0628224
-0.0592268
-0.0464531
-0.0322905
-0.0224352
-0.0145364
0.000221087
0.0285636
0.0695358
0.113975
0.149272
0.166485
0.162864
0.141343
0.107559
0.0666909
0.0225321
0.020891
0.0625537
0.102973
0.138552
0.163317
0.170482
0.156101
0.122787
0.0798053
0.039751
0.0115621
-0.00455593
-0.0156644
-0.0294986
-0.04742
-0.0628231
-0.0677464
-0.0604684
-0.0465494
-0.0353801
-0.0318106
-0.0343584
-0.0387974
-0.0399266
-0.0357583
-0.0276447
-0.0184025
-0.01037
-0.00367007
0.00504693
0.016986
0.0291791
0.040305
0.0516142
0.0636286
0.0739718
0.0806759
0.0845173
0.0879569
0.0900618
0.0883364
0.0835103
0.0786955
0.0741753
0.0683469
0.0616837
0.0564105
0.0529653
0.0500896
0.0478861
0.0478863
0.0500898
0.0529654
0.0564105
0.0616835
0.0683461
0.0741739
0.0786935
0.0835077
0.0883333
0.0900582
0.0879531
0.0845137
0.0806727
0.0739691
0.0636264
0.0516127
0.0403046
0.0291798
0.0169873
0.00504828
-0.00366888
-0.0103688
-0.0184011
-0.027643
-0.0357563
-0.0399247
-0.0387963
-0.0343582
-0.0318108
-0.03538
-0.0465487
-0.0604675
-0.0677456
-0.0628224
-0.0474192
-0.0294977
-0.015664
-0.00455625
0.0115611
0.0397499
0.0798049
0.122788
0.156103
0.170484
0.163318
0.138553
0.102973
0.0625538
0.020891
0.0172904
0.0526404
0.0891016
0.123592
0.149715
0.159898
0.149449
0.120702
0.0827448
0.0474811
0.0229626
0.00840536
-0.0033464
-0.0187475
-0.0382
-0.0545929
-0.0604684
-0.0551558
-0.0435016
-0.0335524
-0.0296794
-0.0309812
-0.0349678
-0.0379569
-0.0372603
-0.032856
-0.0268836
-0.0210433
-0.0159363
-0.00928908
-0.000285215
0.00877096
0.017839
0.0291962
0.0425725
0.0542413
0.062583
0.0692679
0.0763256
0.0816983
0.0827098
0.0805
0.0780887
0.0750731
0.0698735
0.0636266
0.0587019
0.0551874
0.0520244
0.0496916
0.0496916
0.0520242
0.0551867
0.0587008
0.0636251
0.0698715
0.0750702
0.0780852
0.0804962
0.0827057
0.0816941
0.0763217
0.0692646
0.0625805
0.0542395
0.0425714
0.0291961
0.0178399
0.00877276
-0.000283146
-0.00928733
-0.0159349
-0.0210419
-0.0268818
-0.0328537
-0.0372577
-0.0379548
-0.0349666
-0.0309808
-0.0296792
-0.0335517
-0.0435003
-0.0551544
-0.0604676
-0.0545927
-0.0381999
-0.0187473
-0.00334639
0.0084048
0.0229613
0.0474796
0.0827438
0.120702
0.149449
0.159898
0.149715
0.123592
0.0891011
0.0526399
0.0172902
0.0134912
0.0420425
0.0738383
0.106338
0.132873
0.145406
0.138832
0.115262
0.0834964
0.0543697
0.034653
0.0225922
0.0111574
-0.00466827
-0.0242232
-0.0402969
-0.0465494
-0.0435016
-0.0353738
-0.0284582
-0.0259639
-0.0271788
-0.0312181
-0.036186
-0.0390615
-0.0387548
-0.0364899
-0.0329749
-0.0290851
-0.0239481
-0.0175897
-0.0117676
-0.00534755
0.00507514
0.0187129
0.0309185
0.0403971
0.0496118
0.060141
0.0690544
0.0735826
0.0751691
0.0765088
0.0763671
0.0731287
0.0685719
0.0651184
0.0623828
0.0594854
0.0573064
0.0573062
0.0594847
0.0623811
0.0651161
0.0685691
0.0731253
0.076363
0.0765042
0.0751645
0.0735782
0.0690503
0.0601377
0.0496095
0.0403958
0.0309179
0.0187131
0.00507617
-0.00534572
-0.0117653
-0.0175876
-0.0239465
-0.0290838
-0.0329735
-0.0364878
-0.0387522
-0.0390589
-0.0361841
-0.0312172
-0.0271787
-0.0259638
-0.0284573
-0.0353724
-0.0435004
-0.0465488
-0.040297
-0.0242233
-0.00466798
0.0111578
0.0225922
0.0346522
0.0543683
0.0834951
0.115261
0.138832
0.145406
0.132873
0.106337
0.0738369
0.0420413
0.0134907
0.0111298
0.0355222
0.0645894
0.0960988
0.123114
0.137347
0.133631
0.11405
0.0871835
0.0626766
0.0459196
0.034419
0.0216589
0.00449631
-0.0150139
-0.0298713
-0.0353801
-0.0335524
-0.0284582
-0.0245255
-0.0233797
-0.024332
-0.0277865
-0.0337182
-0.0393035
-0.0427553
-0.0441734
-0.0429158
-0.039783
-0.0353694
-0.0309341
-0.0278698
-0.02417
-0.0154613
-0.00276986
0.00883972
0.0184545
0.0292281
0.042281
0.0540597
0.0620236
0.067943
0.0738637
0.0775673
0.077549
0.0761246
0.0753627
0.0742747
0.0723772
0.0708921
0.0708915
0.0723757
0.0742721
0.0753591
0.0761202
0.0775442
0.0775621
0.0738585
0.0679381
0.0620196
0.0540565
0.0422789
0.0292272
0.0184545
0.00884041
-0.00276853
-0.0154593
-0.0241676
-0.0278674
-0.0309322
-0.035368
-0.0397817
-0.042914
-0.044171
-0.0427525
-0.0393013
-0.0337171
-0.0277865
-0.0243327
-0.0233804
-0.0245253
-0.0284573
-0.0335518
-0.03538
-0.0298718
-0.0150142
0.00449688
0.02166
0.0344199
0.0459196
0.0626758
0.0871825
0.11405
0.133631
0.137346
0.123114
0.0960975
0.0645878
0.0355208
0.0111293
0.010483
0.0338755
0.0626
0.0944822
0.122333
0.137798
0.135937
0.118917
0.095055
0.0727551
0.0560736
0.0421737
0.0255726
0.00540298
-0.0146624
-0.0280204
-0.0318106
-0.0296794
-0.0259639
-0.0233797
-0.0220684
-0.0214806
-0.0229453
-0.0281761
-0.0350684
-0.0414671
-0.046315
-0.0474494
-0.0451435
-0.0411716
-0.0380569
-0.0370319
-0.0356755
-0.0290911
-0.018341
-0.00844258
0.000231075
0.0113757
0.0255096
0.0387224
0.0492606
0.0593121
0.0698527
0.0777082
0.0818547
0.0849055
0.0878981
0.0892012
0.0891218
0.0890475
0.0890466
0.0891193
0.0891976
0.0878934
0.0848999
0.0818489
0.0777026
0.0698476
0.0593077
0.0492574
0.0387207
0.0255091
0.011376
0.000232165
-0.00844082
-0.0183388
-0.0290885
-0.0356728
-0.0370294
-0.038055
-0.04117
-0.0451417
-0.047447
-0.0463123
-0.0414645
-0.035067
-0.0281762
-0.0229466
-0.0214825
-0.02207
-0.0233804
-0.0259638
-0.0296793
-0.0318109
-0.0280209
-0.0146624
0.00540397
0.0255742
0.0421752
0.0560742
0.0727546
0.0950541
0.118916
0.135937
0.137798
0.122333
0.0944814
0.0625988
0.0338745
0.0104826
0.010388
0.0337557
0.0628546
0.0955052
0.124262
0.140865
0.140703
0.126003
0.104752
0.0839673
0.0662511
0.0485321
0.0265542
0.00189593
-0.019869
-0.0323785
-0.0343584
-0.0309812
-0.0271788
-0.024332
-0.0214806
-0.0182116
-0.0163538
-0.019173
-0.0257854
-0.0340563
-0.041983
-0.0459857
-0.0452652
-0.0422027
-0.0403096
-0.0408178
-0.0412786
-0.036824
-0.0285633
-0.0210922
-0.0140241
-0.00334702
0.0105328
0.0236558
0.0356405
0.0491171
0.063628
0.0753704
0.0842162
0.0926966
0.100164
0.104447
0.106953
0.108958
0.108957
0.10695
0.104443
0.100159
0.0926906
0.0842101
0.0753651
0.0636238
0.0491138
0.0356386
0.0236556
0.0105336
-0.00334573
-0.0140223
-0.0210898
-0.0285605
-0.0368212
-0.041276
-0.0408154
-0.0403077
-0.0422009
-0.045263
-0.0459832
-0.0419805
-0.0340548
-0.0257855
-0.0191747
-0.0163565
-0.0182142
-0.0214825
-0.0243328
-0.0271787
-0.0309808
-0.0343583
-0.0323784
-0.0198684
0.00189741
0.0265561
0.0485336
0.0662514
0.0839665
0.10475
0.126002
0.140703
0.140866
0.124263
0.0955051
0.062854
0.033755
0.0103878
0.0095348
0.0313696
0.0594446
0.0917308
0.120784
0.138695
0.141227
0.13055
0.113914
0.0964892
0.0790753
0.0581817
0.0307495
0.000794238
-0.0239999
-0.0372374
-0.0387974
-0.0349678
-0.0312181
-0.0277865
-0.0229453
-0.0163538
-0.0100857
-0.00882188
-0.0132261
-0.021662
-0.0316708
-0.0386426
-0.0402913
-0.0390456
-0.0389872
-0.0411893
-0.0432748
-0.040972
-0.0356776
-0.0311885
-0.0261193
-0.0164575
-0.00386716
0.00795741
0.0203028
0.036096
0.0533905
0.0682967
0.0817617
0.0958164
0.1079
0.115506
0.121062
0.125436
0.125435
0.121059
0.115502
0.107895
0.0958109
0.0817563
0.0682925
0.0533877
0.0360941
0.0203021
0.00795816
-0.0038655
-0.0164557
-0.0261172
-0.0311858
-0.0356745
-0.0409692
-0.0432724
-0.0411872
-0.0389853
-0.0390438
-0.0402893
-0.0386406
-0.0316695
-0.0216621
-0.0132279
-0.00882501
-0.0100891
-0.0163565
-0.0229466
-0.0277865
-0.0312172
-0.0349666
-0.0387963
-0.0372365
-0.0239988
0.000795815
0.0307512
0.0581828
0.079075
0.0964876
0.113912
0.130549
0.141227
0.138695
0.120784
0.091731
0.0594443
0.0313691
0.0095346
0.00767575
0.0260241
0.0512105
0.0815086
0.109834
0.128824
0.134781
0.129834
0.120128
0.10872
0.0942948
0.0725763
0.0415116
0.00713779
-0.0210395
-0.0365249
-0.0399266
-0.0379569
-0.036186
-0.0337182
-0.0281761
-0.019173
-0.00882188
-0.00282206
-0.00331052
-0.00963765
-0.0196156
-0.0282328
-0.0317825
-0.0324794
-0.0344915
-0.0382705
-0.0414883
-0.0410636
-0.0388859
-0.0375475
-0.0345559
-0.0262309
-0.0155195
-0.00561693
0.00621932
0.0229509
0.0415296
0.058494
0.075637
0.0942404
0.110254
0.121043
0.129489
0.135885
0.135884
0.129487
0.12104
0.11025
0.0942367
0.0756335
0.0584915
0.0415283
0.0229506
0.0062198
-0.00561555
-0.0155175
-0.0262288
-0.0345536
-0.0375446
-0.0388827
-0.0410608
-0.0414862
-0.0382688
-0.0344899
-0.0324779
-0.0317813
-0.0282321
-0.019616
-0.00963968
-0.00331399
-0.00282593
-0.00882503
-0.0191748
-0.0281762
-0.0337171
-0.0361841
-0.0379547
-0.0399247
-0.0365235
-0.0210382
0.00713906
0.0415127
0.0725767
0.0942938
0.108718
0.120125
0.129832
0.13478
0.128824
0.109834
0.0815086
0.0512101
0.0260235
0.00767552
0.00559512
0.0199641
0.0415634
0.0689838
0.0956987
0.115008
0.123992
0.124869
0.122635
0.118445
0.108848
0.0886012
0.0563917
0.0195288
-0.0112024
-0.0292627
-0.0357583
-0.0372603
-0.0390615
-0.0393035
-0.0350684
-0.0257854
-0.0132261
-0.00331052
0.000646324
-0.00206047
-0.0100561
-0.0185481
-0.0229606
-0.0252878
-0.029262
-0.0342866
-0.0381243
-0.0392675
-0.0400357
-0.0416225
-0.0406121
-0.0337968
-0.0249753
-0.0168219
-0.00582682
0.0107757
0.0294778
0.0474587
0.0668043
0.0881125
0.10674
0.120047
0.13056
0.138066
0.138066
0.13056
0.120046
0.106738
0.0881114
0.0668036
0.0474583
0.0294781
0.0107768
-0.0058254
-0.0168203
-0.0249733
-0.0337945
-0.0406095
-0.0416197
-0.0400328
-0.0392652
-0.038123
-0.0342858
-0.0292614
-0.0252872
-0.0229606
-0.018549
-0.0100581
-0.00206374
0.000642299
-0.003314
-0.0132279
-0.0257855
-0.035067
-0.0393013
-0.0390589
-0.0372577
-0.0357563
-0.0292613
-0.0112015
0.0195294
0.056392
0.0886008
0.108846
0.118442
0.122633
0.124867
0.123991
0.115008
0.095699
0.0689838
0.0415629
0.0199635
0.00559485
0.00414068
0.0156017
0.0342208
0.0587722
0.0833223
0.101994
0.112877
0.118445
0.122726
0.125243
0.120562
0.102655
0.0708838
0.0332908
0.00148084
-0.0182637
-0.0276447
-0.032856
-0.0387548
-0.0427553
-0.0414671
-0.0340563
-0.021662
-0.00963765
-0.00206047
-0.000842811
-0.00548956
-0.0120492
-0.0158959
-0.0188886
-0.0239727
-0.0294496
-0.0331942
-0.0352505
-0.0382164
-0.0421261
-0.0429897
-0.0378713
-0.0307573
-0.0239597
-0.013946
0.00177752
0.0197353
0.0376096
0.0572716
0.0789656
0.0983269
0.112777
0.123933
0.131358
0.131359
0.123934
0.112778
0.0983281
0.0789675
0.0572739
0.0376116
0.0197371
0.00177957
-0.0139439
-0.0239579
-0.0307554
-0.037869
-0.0429873
-0.0421238
-0.0382147
-0.0352496
-0.0331942
-0.0294502
-0.0239733
-0.0188892
-0.0158971
-0.0120512
-0.00549246
-0.000846252
-0.00206373
-0.00963967
-0.0216621
-0.0340548
-0.0414645
-0.0427525
-0.0387522
-0.0328537
-0.027643
-0.0182628
0.00148108
0.0332906
0.0708833
0.102654
0.120561
0.12524
0.122724
0.118444
0.112877
0.101995
0.0833228
0.0587724
0.0342204
0.0156011
0.00414043
0.00345151
0.0133661
0.0300023
0.0521857
0.0745293
0.0920598
0.103872
0.112746
0.121923
0.129596
0.128782
0.113049
0.0824086
0.0453072
0.013726
-0.00673188
-0.0184025
-0.0268836
-0.0364899
-0.0441734
-0.046315
-0.041983
-0.0316708
-0.0196156
-0.0100561
-0.00548956
-0.00610836
-0.00932571
-0.0111202
-0.0133047
-0.0180462
-0.02274
-0.0252173
-0.0268455
-0.0305562
-0.0357017
-0.03799
-0.0345208
-0.0290078
-0.0234766
-0.0146683
-0.000389993
0.0159444
0.0322881
0.0502179
0.0699541
0.0877948
0.101357
0.111441
0.117735
0.117736
0.111444
0.10136
0.087799
0.0699589
0.0502229
0.0322925
0.0159479
-0.000386928
-0.0146655
-0.0234744
-0.029006
-0.034519
-0.0379882
-0.0357006
-0.0305562
-0.0268464
-0.0252188
-0.0227417
-0.0180478
-0.0133061
-0.011122
-0.00932814
-0.0061113
-0.00549244
-0.010058
-0.019616
-0.0316695
-0.0419806
-0.0463123
-0.044171
-0.0364878
-0.0268818
-0.0184011
-0.00673126
0.0137259
0.0453065
0.0824077
0.113048
0.12878
0.129594
0.121922
0.112745
0.103872
0.0920602
0.07453
0.052186
0.0300021
0.0133657
0.00345131
0.00319852
0.0123764
0.0276742
0.0478936
0.0682112
0.0845199
0.0968018
0.108116
0.1209
0.132206
0.133961
0.119667
0.0900934
0.0539759
0.0232891
0.00277477
-0.01037
-0.0210433
-0.0329749
-0.0429158
-0.0474494
-0.0459857
-0.0386426
-0.0282328
-0.0185481
-0.0120492
-0.00932571
-0.00921131
-0.00853616
-0.00920937
-0.0128007
-0.0159023
-0.0160844
-0.0159077
-0.0187709
-0.0236362
-0.0261697
-0.02375
-0.0197584
-0.0156649
-0.00827186
0.00410237
0.0177543
0.0309461
0.0453484
0.0612084
0.0753122
0.0857936
0.0933292
0.0979072
0.0979086
0.0933329
0.0857992
0.0753189
0.0612156
0.0453556
0.0309527
0.0177598
0.0041067
-0.00826844
-0.0156623
-0.0197565
-0.0237489
-0.0261695
-0.023637
-0.0187728
-0.0159103
-0.0160872
-0.0159048
-0.0128026
-0.00921094
-0.00853794
-0.00921355
-0.00932813
-0.0120512
-0.018549
-0.0282321
-0.0386406
-0.0459832
-0.0474471
-0.042914
-0.0329735
-0.0210419
-0.0103688
0.00277538
0.0232889
0.0539749
0.0900922
0.119666
0.13396
0.132204
0.120898
0.108115
0.0968016
0.0845205
0.068212
0.0478941
0.0276741
0.0123761
0.00319836
0.00289104
0.0112346
0.0251093
0.0433172
0.0616563
0.0768274
0.0895977
0.103209
0.119188
0.133573
0.137424
0.124281
0.0957491
0.0607817
0.0310958
0.0106377
-0.00367007
-0.0159363
-0.0290851
-0.039783
-0.0451435
-0.0452652
-0.0402913
-0.0317825
-0.0229606
-0.0158959
-0.0111202
-0.00853616
-0.00597686
-0.00560797
-0.0084235
-0.0101887
-0.00814646
-0.00592988
-0.00721789
-0.0105678
-0.0120213
-0.00996843
-0.00759843
-0.00534864
0.000216239
0.00987561
0.0193669
0.0276664
0.0370282
0.0474851
0.0559725
0.0616098
0.0657093
0.0684585
0.0684597
0.0657132
0.0616164
0.0559808
0.0474938
0.0370368
0.0276748
0.0193744
0.00988129
0.000220192
-0.00534595
-0.007597
-0.0099686
-0.0120231
-0.0105706
-0.00722132
-0.00593337
-0.00814957
-0.010191
-0.00842492
-0.00560897
-0.00597816
-0.00853793
-0.0111219
-0.015897
-0.0229606
-0.0317813
-0.0402893
-0.045263
-0.0451417
-0.0397817
-0.0290838
-0.0159349
-0.00366888
0.0106382
0.0310953
0.0607804
0.0957475
0.124279
0.137423
0.133572
0.119186
0.103208
0.0895976
0.076828
0.0616571
0.0433177
0.0251093
0.0112344