/*--------------------------------*- C++ -*----------------------------------*\
  =========                 |
  \\      /  F ield         | OpenFOAM: The Open Source CFD Toolbox
   \\    /   O peration     | Website:  https://openfoam.org
    \\  /    A nd           | Version:  10
     \\/     M anipulation  |
\*---------------------------------------------------------------------------*/
FoamFile
{
    format      ascii;
    class       volScalarField;
    location    "45";
    object      h_0;
}
// * * * * * * * * * * * * * * * * * * * * * * * * * * * * * * * * * * * * * //

dimensions      [0 1 0 0 0 0 0];

internalField   nonuniform List<scalar> 
10000
(
0.0035635
0.0101244
0.0152621
0.0186954
0.0207495
0.0221239
0.0233367
0.0243656
0.0247392
0.0239507
0.022136
0.0202529
0.0194793
0.0203462
0.0219741
0.022613
0.0210003
0.0174074
0.0135818
0.011176
0.0104969
0.0103989
0.00955888
0.00770828
0.0056192
0.00414777
0.00344568
0.00318817
0.0028825
0.00236543
0.00167544
0.0010918
0.000973566
0.00128043
0.00141767
0.00104491
0.000696742
0.000882881
0.00130246
0.00129235
0.000987008
0.000967885
0.00128398
0.00139564
0.00122082
0.00114343
0.00129231
0.00139304
0.00133807
0.00125552
0.00125552
0.00133808
0.00139305
0.00129232
0.00114344
0.00122084
0.00139567
0.00128399
0.000967889
0.000987027
0.00129238
0.00130246
0.000882854
0.000696716
0.00104492
0.00141767
0.00128037
0.000973475
0.00109173
0.00167537
0.00236534
0.00288237
0.00318802
0.00344548
0.00414752
0.00561893
0.00770806
0.00955869
0.0103986
0.0104965
0.0111754
0.0135814
0.0174072
0.0210003
0.022613
0.021974
0.020346
0.0194791
0.020253
0.0221364
0.0239514
0.02474
0.0243663
0.0233373
0.0221246
0.0207502
0.0186962
0.0152629
0.010125
0.00356373
0.0101244
0.0287407
0.0432143
0.0527304
0.0583046
0.0619822
0.065277
0.0681645
0.0692632
0.0671269
0.0621974
0.0572598
0.055702
0.0589532
0.0643805
0.0669031
0.0628518
0.0529641
0.0422934
0.0356475
0.0339093
0.0337822
0.0314378
0.0261223
0.0200437
0.0156362
0.0133675
0.0123694
0.011238
0.00944848
0.00714072
0.00513097
0.0044694
0.00501568
0.00508649
0.00372193
0.00245744
0.00272475
0.00365633
0.0033965
0.00233561
0.00211339
0.00283785
0.00300001
0.0023878
0.00209182
0.00243192
0.00263664
0.00244164
0.00221351
0.00221353
0.00244167
0.00263666
0.00243194
0.00209187
0.00238787
0.00300008
0.00283789
0.00211342
0.00233569
0.0033966
0.00365639
0.00272474
0.00245744
0.00372201
0.00508657
0.00501563
0.00446928
0.0051309
0.00714068
0.00944837
0.0112378
0.0123691
0.0133671
0.0156357
0.0200431
0.0261218
0.0314373
0.0337816
0.0339083
0.0356461
0.0422923
0.0529636
0.0628519
0.0669033
0.0643802
0.0589525
0.0557014
0.05726
0.0621985
0.0671286
0.0692651
0.0681662
0.0652786
0.0619839
0.0583066
0.0527325
0.0432164
0.0287422
0.010125
0.0152621
0.0432143
0.0646315
0.078258
0.0858012
0.0905578
0.0949881
0.0991571
0.100898
0.098011
0.091234
0.0848718
0.0842007
0.0912878
0.101848
0.107831
0.103387
0.0895657
0.0742001
0.0647657
0.0626434
0.0628955
0.0595601
0.0513851
0.0417246
0.0343249
0.0300663
0.0277355
0.025197
0.021516
0.0170087
0.0129792
0.011043
0.0109314
0.0101297
0.00725726
0.00462778
0.00433309
0.00502461
0.00402823
0.00195419
0.00120299
0.0018363
0.00167253
0.000474083
-0.000143488
0.00015557
0.000240979
-0.000145042
-0.000452407
-0.00045238
-0.000145004
0.00024099
0.000155581
-0.00014343
0.000474169
0.0016726
0.00183635
0.00120307
0.00195431
0.00402839
0.00502474
0.00433317
0.00462791
0.0072575
0.01013
0.0109315
0.0110431
0.0129793
0.0170089
0.0215161
0.025197
0.0277355
0.0300661
0.0343245
0.0417241
0.0513847
0.0595598
0.0628949
0.0626422
0.0647641
0.0741987
0.0895651
0.103388
0.107832
0.101848
0.0912869
0.0841999
0.0848719
0.0912353
0.0980133
0.100901
0.0991593
0.09499
0.0905598
0.0858036
0.0782609
0.0646343
0.0432164
0.0152629
0.0186954
0.0527304
0.078258
0.0936987
0.101391
0.105734
0.110042
0.11455
0.116523
0.113294
0.105908
0.0998118
0.101707
0.113926
0.130712
0.141617
0.139019
0.124139
0.106775
0.0963173
0.0945473
0.0955776
0.0919087
0.0817768
0.0692575
0.058993
0.0523704
0.0480872
0.0435557
0.0374228
0.0302272
0.0236967
0.0197953
0.0181088
0.0156486
0.0109164
0.00665832
0.00524635
0.0049741
0.00287389
-0.000265762
-0.00172293
-0.00162773
-0.00242413
-0.00421552
-0.00513921
-0.00507407
-0.00531566
-0.00589432
-0.00616354
-0.00616352
-0.0058943
-0.00531569
-0.00507409
-0.00513918
-0.00421549
-0.00242413
-0.00162771
-0.00172287
-0.000265665
0.00287403
0.00497426
0.00524652
0.00665856
0.0109168
0.0156491
0.0181092
0.0197957
0.0236973
0.0302278
0.0374234
0.0435562
0.0480877
0.0523708
0.0589931
0.0692575
0.0817768
0.0919089
0.0955775
0.0945465
0.096316
0.106774
0.124139
0.13902
0.141618
0.130712
0.113925
0.101706
0.0998118
0.105909
0.113296
0.116525
0.114552
0.110044
0.105735
0.101393
0.0937015
0.0782609
0.0527325
0.0186962
0.0207495
0.0583046
0.0858012
0.101391
0.107919
0.110579
0.11337
0.116782
0.11787
0.113913
0.106369
0.101472
0.106702
0.124188
0.146998
0.16313
0.163824
0.150337
0.133395
0.12341
0.122468
0.124405
0.121045
0.110204
0.0960902
0.0836663
0.0748378
0.0685324
0.0620317
0.0536063
0.0439621
0.0351726
0.0292831
0.0257095
0.0214033
0.0150795
0.00952671
0.00694983
0.0054475
0.00231161
-0.00151236
-0.00348348
-0.00406586
-0.00552782
-0.00766018
-0.00867854
-0.00888975
-0.00953864
-0.0102255
-0.0103134
-0.0103133
-0.0102256
-0.00953871
-0.00888981
-0.00867857
-0.00766024
-0.0055279
-0.00406588
-0.00348345
-0.00151233
0.0023117
0.00544769
0.00695008
0.00952703
0.01508
0.0214039
0.0257101
0.0292837
0.0351734
0.043963
0.0536072
0.0620325
0.0685332
0.0748385
0.0836667
0.0960905
0.110204
0.121046
0.124405
0.122468
0.123409
0.133394
0.150337
0.163825
0.163131
0.146998
0.124188
0.106701
0.101472
0.10637
0.113915
0.117872
0.116783
0.113371
0.11058
0.107921
0.101393
0.0858036
0.0583066
0.0207503
0.0221239
0.0619822
0.0905578
0.105734
0.110579
0.110724
0.110668
0.1112
0.109604
0.103561
0.095046
0.0907755
0.0983815
0.119519
0.146541
0.166777
0.171048
0.160603
0.14603
0.137755
0.138043
0.141104
0.139036
0.129265
0.11547
0.102407
0.092425
0.0848841
0.077235
0.0675353
0.056542
0.0465773
0.0394589
0.0344282
0.0287897
0.0217893
0.0158741
0.0126551
0.0102153
0.00658529
0.00286336
0.000933286
-9.32319e-05
-0.00192906
-0.0039097
-0.00465314
-0.00500606
-0.0059637
-0.00659353
-0.00637904
-0.00637904
-0.00659357
-0.00596378
-0.00500612
-0.0046532
-0.00390983
-0.00192918
-9.32536e-05
0.000933296
0.00286333
0.00658532
0.0102155
0.0126554
0.0158744
0.0217897
0.0287902
0.0344289
0.0394595
0.046578
0.0565427
0.067536
0.0772356
0.0848847
0.0924255
0.102407
0.11547
0.129265
0.139037
0.141104
0.138043
0.137755
0.14603
0.160604
0.171049
0.166778
0.146542
0.119519
0.0983811
0.0907755
0.0950471
0.103562
0.109606
0.1112
0.110669
0.110725
0.11058
0.105735
0.0905599
0.061984
0.0221246
0.0233367
0.065277
0.0949881
0.110042
0.11337
0.110668
0.106658
0.102406
0.0959117
0.0857084
0.0744899
0.0692838
0.0772574
0.0993335
0.127592
0.149615
0.156725
0.150219
0.139538
0.13414
0.136281
0.141005
0.141584
0.135198
0.12441
0.113234
0.104158
0.0970569
0.0898684
0.0806861
0.0701466
0.0606703
0.0535784
0.0479599
0.0418541
0.0352783
0.0300413
0.0268305
0.0239079
0.0203771
0.0174857
0.0161002
0.0149173
0.0130487
0.0116527
0.0114467
0.0110932
0.010003
0.0095751
0.0101091
0.0101091
0.00957506
0.0100029
0.0110932
0.0114467
0.0116526
0.0130487
0.0149174
0.0161003
0.0174858
0.0203773
0.0239083
0.0268309
0.0300417
0.0352786
0.0418546
0.0479605
0.0535789
0.0606707
0.0701468
0.0806861
0.0898684
0.0970568
0.104158
0.113234
0.124409
0.135197
0.141583
0.141005
0.13628
0.13414
0.139538
0.150219
0.156726
0.149617
0.127594
0.099334
0.0772573
0.069284
0.0744909
0.08571
0.0959132
0.102407
0.106658
0.110669
0.113371
0.110044
0.0949901
0.0652787
0.0233373
0.0243656
0.0681645
0.0991571
0.11455
0.116782
0.1112
0.102406
0.0917736
0.0784791
0.0623412
0.0469758
0.0395071
0.0459795
0.0663607
0.0928954
0.114329
0.123399
0.121444
0.115954
0.114577
0.119281
0.126284
0.130822
0.130109
0.125114
0.118617
0.112822
0.108129
0.103205
0.0964212
0.0881728
0.080766
0.0748524
0.0693834
0.0634633
0.0579897
0.0539857
0.0510266
0.0477606
0.0445168
0.042655
0.0418474
0.0405093
0.0387128
0.0379866
0.0382395
0.0378631
0.0367737
0.0365775
0.0372964
0.0372964
0.0365775
0.0367738
0.0378633
0.0382397
0.0379868
0.038713
0.0405098
0.0418479
0.0426554
0.0445174
0.0477614
0.0510274
0.0539864
0.0579903
0.0634639
0.069384
0.0748528
0.080766
0.0881724
0.0964206
0.103204
0.108128
0.112821
0.118615
0.125112
0.130107
0.130821
0.126283
0.11928
0.114576
0.115954
0.121444
0.1234
0.11433
0.0928967
0.0663614
0.0459796
0.0395072
0.0469765
0.0623425
0.0784806
0.0917749
0.102407
0.1112
0.116783
0.114552
0.0991594
0.0681663
0.0243663
0.0247392
0.0692632
0.100898
0.116523
0.11787
0.109604
0.0959117
0.0784791
0.0578667
0.0354389
0.0158151
0.00589403
0.0101406
0.0274281
0.050456
0.0697874
0.0802585
0.0832945
0.0840139
0.0875873
0.0953261
0.104923
0.114027
0.120198
0.122658
0.122684
0.121786
0.120684
0.118932
0.115431
0.11039
0.105711
0.101289
0.0959751
0.0901583
0.085606
0.08252
0.0793707
0.0753612
0.0720372
0.0707343
0.0699793
0.0681386
0.0662452
0.0658987
0.0662022
0.065618
0.0645961
0.0645457
0.0651988
0.0651989
0.0645458
0.0645963
0.0656184
0.0662026
0.0658992
0.0662459
0.0681395
0.0699802
0.0707352
0.0720382
0.0753625
0.0793719
0.082521
0.0856067
0.0901591
0.0959758
0.101289
0.10571
0.11039
0.11543
0.118931
0.120683
0.121784
0.122682
0.122656
0.120195
0.114025
0.104921
0.0953252
0.0875862
0.0840127
0.0832935
0.0802582
0.069788
0.0504567
0.0274284
0.0101404
0.00589362
0.0158152
0.0354398
0.0578681
0.0784806
0.0959132
0.109606
0.117872
0.116525
0.100901
0.0692652
0.02474
0.0239507
0.0671269
0.098011
0.113294
0.113913
0.103561
0.0857084
0.0623412
0.0354389
0.0081106
-0.0140399
-0.024754
-0.0215305
-0.00696857
0.0121121
0.0285975
0.0399204
0.0477147
0.0546028
0.0628746
0.072886
0.0840165
0.0964616
0.108629
0.118315
0.12508
0.129366
0.131908
0.133229
0.132944
0.131205
0.129168
0.12596
0.120411
0.114205
0.109866
0.106808
0.102617
0.0971574
0.0930467
0.0913613
0.0897513
0.0868341
0.0844742
0.0839402
0.0836796
0.0825963
0.0816219
0.0815455
0.0818459
0.081846
0.0815457
0.0816222
0.0825968
0.0836802
0.083941
0.0844752
0.0868353
0.0897525
0.0913626
0.0930481
0.097159
0.102618
0.10681
0.109867
0.114206
0.120412
0.12596
0.129167
0.131203
0.132943
0.133228
0.131906
0.129364
0.125077
0.118313
0.108626
0.09646
0.0840156
0.0728855
0.0628737
0.0546015
0.0477133
0.0399195
0.0285973
0.0121124
-0.00696868
-0.0215313
-0.0247552
-0.0140409
0.00811058
0.0354398
0.0623425
0.08571
0.103562
0.113915
0.113296
0.0980133
0.0671287
0.0239514
0.022136
0.0621974
0.091234
0.105908
0.106369
0.095046
0.0744899
0.0469758
0.0158151
-0.0140399
-0.0361622
-0.0453831
-0.0413931
-0.0285998
-0.013308
1.20266e-05
0.0114289
0.0228716
0.0346074
0.0459373
0.0561224
0.0662732
0.0790369
0.0941996
0.108741
0.120467
0.128668
0.133807
0.137225
0.139363
0.140479
0.140736
0.138491
0.132643
0.125933
0.121418
0.117804
0.112143
0.105012
0.0997983
0.0970547
0.0939627
0.0897073
0.0867208
0.085583
0.084334
0.0826122
0.0816951
0.0814693
0.0812332
0.0812333
0.0814695
0.0816955
0.0826128
0.0843347
0.085584
0.0867219
0.0897085
0.0939641
0.0970561
0.0997997
0.105014
0.112144
0.117805
0.121418
0.125933
0.132643
0.138491
0.140735
0.140477
0.139361
0.137224
0.133805
0.128666
0.120465
0.108739
0.0941986
0.0790366
0.0662735
0.056123
0.0459373
0.0346065
0.0228703
0.011428
1.18295e-05
-0.0133077
-0.0285999
-0.0413941
-0.0453848
-0.036164
-0.0140409
0.0158152
0.0469766
0.0744909
0.0950471
0.10637
0.105909
0.0912353
0.0621985
0.0221365
0.0202529
0.0572598
0.0848718
0.0998118
0.101472
0.0907755
0.0692838
0.0395071
0.00589403
-0.024754
-0.0453831
-0.052127
-0.0467477
-0.0355409
-0.0242998
-0.0148719
-0.00486773
0.00811728
0.0223914
0.034372
0.0422591
0.0486562
0.0582727
0.0726241
0.0886594
0.102763
0.113189
0.119798
0.124367
0.128296
0.132084
0.134768
0.133949
0.128676
0.122329
0.118152
0.114258
0.107578
0.0994094
0.0934602
0.0895765
0.0849273
0.0795278
0.0760231
0.0741323
0.0717806
0.0694608
0.0686061
0.0681764
0.0673823
0.0673824
0.0681766
0.0686066
0.0694615
0.0717814
0.0741333
0.0760242
0.0795288
0.0849284
0.0895776
0.0934611
0.0994099
0.107578
0.114258
0.118151
0.122328
0.128675
0.133948
0.134766
0.132082
0.128294
0.124366
0.119797
0.113188
0.102762
0.0886589
0.0726244
0.0582737
0.0486576
0.0422607
0.0343729
0.0223913
0.00811673
-0.00486803
-0.0148714
-0.0242989
-0.0355403
-0.0467483
-0.0521285
-0.0453848
-0.0247552
0.00589365
0.0395072
0.0692841
0.0907756
0.101472
0.0998118
0.084872
0.0572601
0.020253
0.0194793
0.055702
0.0842007
0.101707
0.106702
0.0983815
0.0772574
0.0459795
0.0101406
-0.0215305
-0.0413931
-0.0467477
-0.0412003
-0.0328255
-0.0268693
-0.0227076
-0.0159555
-0.00363738
0.010968
0.0216723
0.0257818
0.0268391
0.0310083
0.0417227
0.0566077
0.0711597
0.0827482
0.0904485
0.0960603
0.101974
0.108937
0.114866
0.116765
0.113877
0.109721
0.107249
0.104167
0.0976838
0.0897772
0.0839515
0.0793099
0.0734407
0.0673165
0.0634426
0.0607517
0.057348
0.0544855
0.0535686
0.0528733
0.0516226
0.0516227
0.0528736
0.0535692
0.0544862
0.0573488
0.0607527
0.0634436
0.0673173
0.0734414
0.0793105
0.0839516
0.0897768
0.0976828
0.104165
0.107247
0.109718
0.113874
0.116762
0.114863
0.108935
0.101972
0.0960587
0.0904473
0.0827472
0.0711593
0.056608
0.0417237
0.03101
0.026841
0.0257835
0.0216734
0.0109683
-0.00363739
-0.0159551
-0.0227062
-0.0268673
-0.0328237
-0.0411996
-0.0467483
-0.0413941
-0.0215313
0.0101404
0.0459797
0.0772574
0.0983811
0.106701
0.101706
0.0841999
0.0557015
0.0194792
0.0203462
0.0589532
0.0912878
0.113926
0.124188
0.119519
0.0993335
0.0663607
0.0274281
-0.00696857
-0.0285998
-0.0355409
-0.0328255
-0.0296418
-0.0304115
-0.0323868
-0.0296609
-0.0189523
-0.00479381
0.00457656
0.0056981
0.00227512
0.0011389
0.00741616
0.019783
0.0335891
0.0456839
0.054389
0.0611601
0.0692128
0.079541
0.0891905
0.0948987
0.0961196
0.0960255
0.0967466
0.095795
0.0910045
0.0848799
0.0802186
0.0754811
0.0689981
0.0626369
0.0584998
0.0550002
0.0506652
0.0472631
0.0460382
0.0449834
0.0434273
0.0434274
0.0449838
0.0460389
0.047264
0.0506661
0.0550011
0.0585007
0.0626375
0.0689983
0.075481
0.0802179
0.0848783
0.0910024
0.0957925
0.0967436
0.096022
0.0961159
0.0948951
0.0891873
0.0795383
0.0692108
0.0611587
0.054388
0.0456832
0.0335889
0.0197837
0.00741744
0.00114047
0.00227659
0.00569912
0.00457718
-0.0047935
-0.018952
-0.0296601
-0.032385
-0.030409
-0.0296392
-0.0328237
-0.0355403
-0.0286
-0.00696872
0.0274284
0.0663615
0.0993341
0.119519
0.124188
0.113925
0.0912869
0.0589526
0.020346
0.0219741
0.0643805
0.101848
0.130712
0.146998
0.146541
0.127592
0.0928954
0.050456
0.0121121
-0.013308
-0.0242998
-0.0268693
-0.0304115
-0.0383721
-0.0464076
-0.047493
-0.0383676
-0.0243547
-0.0149687
-0.0144187
-0.0195504
-0.0237278
-0.0208535
-0.0110735
0.00163173
0.013965
0.0235913
0.0313941
0.0411265
0.0540314
0.0666994
0.0760289
0.0818069
0.0864897
0.0909439
0.0926905
0.0904508
0.0870084
0.0840832
0.0796708
0.0729904
0.0665937
0.0620419
0.0575592
0.0522501
0.0481364
0.0462358
0.0446389
0.0428567
0.0428568
0.0446393
0.0462366
0.0481372
0.0522509
0.0575599
0.0620424
0.0665937
0.07299
0.0796698
0.0840816
0.0870059
0.0904478
0.0926874
0.0909405
0.086486
0.0818032
0.0760257
0.0666971
0.0540298
0.0411255
0.0313936
0.0235911
0.0139649
0.00163202
-0.0110725
-0.0208522
-0.0237267
-0.0195498
-0.0144187
-0.0149689
-0.0243547
-0.0383674
-0.0474923
-0.0464058
-0.0383697
-0.030409
-0.0268673
-0.0242989
-0.0133078
0.0121123
0.0504567
0.0928967
0.127594
0.146542
0.146998
0.130712
0.101848
0.0643802
0.021974
0.022613
0.0669031
0.107831
0.141617
0.16313
0.166777
0.149615
0.114329
0.0697874
0.0285975
1.20266e-05
-0.0148719
-0.0227076
-0.0323868
-0.0464076
-0.0592028
-0.0629546
-0.0548518
-0.0405478
-0.0299722
-0.0279415
-0.0322208
-0.0371148
-0.036484
-0.0292919
-0.0182887
-0.0066674
0.00292736
0.0108278
0.0208891
0.034462
0.0481537
0.0595248
0.0689366
0.0779109
0.0857511
0.0901557
0.0908539
0.0906176
0.0898877
0.0863606
0.0800771
0.0740076
0.0691265
0.0637052
0.0574892
0.0526156
0.0498513
0.0475885
0.0455862
0.0455864
0.0475889
0.0498518
0.0526162
0.0574897
0.0637054
0.0691263
0.0740068
0.0800758
0.0863586
0.089885
0.0906143
0.0908504
0.0901523
0.0857479
0.0779077
0.0689339
0.0595229
0.0481529
0.034462
0.0208895
0.0108283
0.00292799
-0.00666673
-0.0182878
-0.0292905
-0.0364825
-0.037114
-0.0322207
-0.027942
-0.0299727
-0.0405479
-0.0548515
-0.062954
-0.0592016
-0.0464058
-0.0323849
-0.0227062
-0.0148714
1.17695e-05
0.0285973
0.0697879
0.11433
0.149617
0.166778
0.163131
0.141618
0.107832
0.0669033
0.022613
0.0210003
0.0628518
0.103387
0.139019
0.163824
0.171048
0.156725
0.123399
0.0802585
0.0399204
0.0114289
-0.00486773
-0.0159555
-0.0296609
-0.047493
-0.0629546
-0.068051
-0.0609061
-0.0469787
-0.0356655
-0.0319156
-0.0343512
-0.0387796
-0.0399521
-0.03584
-0.0277325
-0.0184103
-0.0102794
-0.00351425
0.00522536
0.0171785
0.0294037
0.0405595
0.0518345
0.0637882
0.07411
0.0807898
0.084538
0.0878621
0.0899149
0.0881706
0.0832855
0.0783954
0.0738645
0.068056
0.0613742
0.0560811
0.0526656
0.0498077
0.0475811
0.0475812
0.049808
0.0526657
0.0560811
0.061374
0.0680553
0.0738632
0.0783934
0.083283
0.0881675
0.0899112
0.0878583
0.0845343
0.0807866
0.0741073
0.0637859
0.051833
0.0405591
0.0294044
0.0171798
0.00522669
-0.00351307
-0.0102782
-0.0184089
-0.0277308
-0.0358379
-0.0399502
-0.0387786
-0.034351
-0.0319158
-0.0356654
-0.046978
-0.0609052
-0.0680502
-0.062954
-0.0474922
-0.0296601
-0.0159551
-0.00486805
0.0114279
0.0399194
0.0802581
0.1234
0.156726
0.171049
0.163825
0.13902
0.103388
0.0628519
0.0210003
0.0174074
0.0529641
0.0895657
0.124139
0.150337
0.160603
0.150219
0.121444
0.0832945
0.0477147
0.0228716
0.00811728
-0.00363738
-0.0189523
-0.0383676
-0.0548518
-0.0609061
-0.0557169
-0.0440426
-0.033957
-0.029909
-0.031068
-0.0349929
-0.0379727
-0.0373008
-0.0329068
-0.0268749
-0.0209475
-0.0157729
-0.00907722
-1.54591e-05
0.00910023
0.018206
0.0295426
0.0428934
0.0545815
0.0629177
0.0695023
0.0764405
0.0817636
0.082738
0.0804308
0.0779172
0.0748752
0.0696662
0.0633629
0.0583994
0.0549118
0.0517556
0.0493819
0.049382
0.0517555
0.0549111
0.0583983
0.0633615
0.0696642
0.0748724
0.0779138
0.0804271
0.0827339
0.0817594
0.0764365
0.069499
0.0629151
0.0545797
0.0428924
0.0295424
0.0182069
0.00910201
-1.34049e-05
-0.00907548
-0.0157714
-0.0209461
-0.0268731
-0.0329045
-0.0372983
-0.0379706
-0.0349917
-0.0310676
-0.0299089
-0.0339563
-0.0440413
-0.0557156
-0.0609053
-0.0548515
-0.0383674
-0.018952
-0.00363737
0.00811671
0.0228703
0.0477132
0.0832935
0.121444
0.150219
0.160604
0.150337
0.124139
0.0895651
0.0529636
0.0174072
0.0135818
0.0422934
0.0742001
0.106775
0.133395
0.14603
0.139538
0.115954
0.0840139
0.0546028
0.0346074
0.0223914
0.010968
-0.00479381
-0.0243547
-0.0405478
-0.0469787
-0.0440426
-0.0358937
-0.028871
-0.0262335
-0.0273033
-0.0312484
-0.0361608
-0.039028
-0.0387366
-0.0364478
-0.0328832
-0.028954
-0.0237689
-0.0173315
-0.0114422
-0.00499467
0.00540952
0.0190511
0.0313123
0.0408086
0.0499338
0.0603611
0.0692387
0.0737202
0.0751865
0.0764103
0.0762253
0.0729449
0.0682983
0.0647856
0.0620616
0.0591557
0.0569255
0.0569253
0.0591549
0.0620599
0.0647833
0.0682955
0.0729415
0.0762211
0.0764057
0.0751819
0.0737158
0.0692346
0.0603577
0.0499314
0.0408072
0.0313117
0.0190513
0.00541053
-0.00499285
-0.0114399
-0.0173295
-0.0237674
-0.0289528
-0.0328817
-0.0364457
-0.038734
-0.0390254
-0.0361589
-0.0312475
-0.0273032
-0.0262334
-0.0288701
-0.0358923
-0.0440414
-0.0469781
-0.0405479
-0.0243548
-0.00479352
0.0109683
0.0223913
0.0346065
0.0546014
0.0840127
0.115954
0.139538
0.14603
0.133394
0.106774
0.0741987
0.0422923
0.0135814
0.011176
0.0356475
0.0647657
0.0963173
0.12341
0.137755
0.13414
0.114577
0.0875873
0.0628746
0.0459373
0.034372
0.0216723
0.00457656
-0.0149687
-0.0299722
-0.0356655
-0.033957
-0.028871
-0.0248947
-0.0236752
-0.0245213
-0.02788
-0.0337263
-0.0392707
-0.0427295
-0.0441478
-0.0428736
-0.039732
-0.0352759
-0.0307473
-0.0276121
-0.0238987
-0.0152103
-0.00249292
0.00919712
0.0188508
0.0295599
0.0425453
0.0543091
0.062227
0.0680222
0.0738268
0.0774699
0.0773792
0.0758399
0.074997
0.0738924
0.0719676
0.0704295
0.070429
0.071966
0.0738897
0.0749934
0.0758355
0.0773744
0.0774647
0.0738216
0.0680174
0.0622229
0.0543059
0.0425432
0.0295589
0.0188507
0.00919779
-0.0024916
-0.0152083
-0.0238963
-0.0276097
-0.0307454
-0.0352745
-0.0397306
-0.0428718
-0.0441453
-0.0427267
-0.0392685
-0.0337252
-0.02788
-0.024522
-0.0236758
-0.0248944
-0.0288701
-0.0339563
-0.0356654
-0.0299727
-0.014969
0.00457714
0.0216733
0.0343728
0.0459373
0.0628737
0.0875862
0.114576
0.13414
0.137755
0.12341
0.096316
0.0647641
0.0356461
0.0111754
0.0104969
0.0339093
0.0626434
0.0945473
0.122468
0.138043
0.136281
0.119281
0.0953261
0.072886
0.0561224
0.0422591
0.0257818
0.0056981
-0.0144187
-0.0279415
-0.0319156
-0.029909
-0.0262335
-0.0236752
-0.0223798
-0.0217584
-0.0231585
-0.0282984
-0.0351246
-0.0415094
-0.0463643
-0.047503
-0.0452101
-0.0411967
-0.037971
-0.0368657
-0.0355028
-0.0289358
-0.0181423
-0.00815165
0.000575478
0.0116892
0.0257994
0.0390233
0.0495278
0.059471
0.0699093
0.0776946
0.0817487
0.0846716
0.0875644
0.088818
0.0886928
0.0885698
0.0885689
0.0886904
0.0888144
0.0875597
0.0846661
0.0817428
0.077689
0.0699042
0.0594666
0.0495246
0.0390215
0.0257988
0.0116895
0.000576545
-0.00814991
-0.01814
-0.0289333
-0.0355002
-0.0368633
-0.0379691
-0.0411952
-0.0452083
-0.0475007
-0.0463615
-0.0415068
-0.0351232
-0.0282986
-0.0231598
-0.0217602
-0.0223813
-0.0236759
-0.0262334
-0.0299089
-0.0319159
-0.027942
-0.0144187
0.0056991
0.0257835
0.0422607
0.056123
0.0728855
0.0953252
0.11928
0.13628
0.138043
0.122468
0.0945465
0.0626422
0.0339083
0.0104965
0.0103989
0.0337822
0.0628955
0.0955776
0.124405
0.141104
0.141005
0.126284
0.104923
0.0840165
0.0662732
0.0486562
0.0268391
0.00227512
-0.0195504
-0.0322208
-0.0343512
-0.031068
-0.0273033
-0.0245213
-0.0217584
-0.0185278
-0.0166487
-0.0193934
-0.0259303
-0.0341695
-0.0421074
-0.046135
-0.0454474
-0.0423462
-0.0403305
-0.0407509
-0.0412068
-0.0367599
-0.0284434
-0.0208834
-0.0137599
-0.00308354
0.0108142
0.0239745
0.0359451
0.0493413
0.0637762
0.0754534
0.0842029
0.0925561
0.099915
0.104125
0.106572
0.108533
0.108531
0.106569
0.10412
0.0999098
0.09255
0.0841967
0.0754481
0.0637719
0.049338
0.0359431
0.0239741
0.010815
-0.00308226
-0.0137582
-0.020881
-0.0284406
-0.0367571
-0.0412041
-0.0407485
-0.0403286
-0.0423444
-0.0454453
-0.0461324
-0.042105
-0.0341679
-0.0259304
-0.0193951
-0.0166513
-0.0185304
-0.0217602
-0.0245221
-0.0273032
-0.0310677
-0.0343511
-0.0322207
-0.0195498
0.00227659
0.026841
0.0486577
0.0662735
0.0840156
0.104921
0.126283
0.141005
0.141104
0.124405
0.0955775
0.0628949
0.0337816
0.0103986
0.00955888
0.0314378
0.0595601
0.0919087
0.121045
0.139036
0.141584
0.130822
0.114027
0.0964616
0.0790369
0.0582727
0.0310083
0.0011389
-0.0237278
-0.0371148
-0.0387796
-0.0349929
-0.0312484
-0.02788
-0.0231585
-0.0166487
-0.0103914
-0.00907593
-0.0134028
-0.0217908
-0.031813
-0.0388269
-0.0405255
-0.0392497
-0.0390719
-0.041186
-0.0432648
-0.0409557
-0.0355989
-0.0310374
-0.0259284
-0.0162544
-0.00361996
0.00825869
0.0206036
0.0363405
0.0535895
0.0684496
0.0818272
0.0957651
0.107748
0.115276
0.120768
0.125101
0.1251
0.120765
0.115272
0.107743
0.0957596
0.0818218
0.0684453
0.0535866
0.0363387
0.0206029
0.00825942
-0.00361831
-0.0162526
-0.0259264
-0.0310347
-0.0355959
-0.0409528
-0.0432624
-0.0411839
-0.03907
-0.0392478
-0.0405235
-0.0388248
-0.0318116
-0.021791
-0.0134047
-0.00907905
-0.0103947
-0.0166513
-0.0231598
-0.02788
-0.0312475
-0.0349917
-0.0387786
-0.037114
-0.0237267
0.00114048
0.03101
0.0582737
0.0790366
0.09646
0.114025
0.130821
0.141583
0.139037
0.121046
0.0919089
0.0595598
0.0314373
0.00955869
0.00770828
0.0261223
0.0513851
0.0817768
0.110204
0.129265
0.135198
0.130109
0.120198
0.108629
0.0941996
0.0726241
0.0417227
0.00741616
-0.0208535
-0.036484
-0.0399521
-0.0379727
-0.0361608
-0.0337263
-0.0282984
-0.0193934
-0.00907593
-0.00305161
-0.00346981
-0.00974222
-0.0197413
-0.0284199
-0.0320398
-0.0327276
-0.0346411
-0.0383393
-0.0415454
-0.041093
-0.038838
-0.0374365
-0.0344228
-0.0260813
-0.0153059
-0.00533491
0.00650887
0.0232038
0.0417734
0.0587249
0.0758016
0.0943115
0.110255
0.120988
0.129376
0.135732
0.135731
0.129374
0.120985
0.110252
0.0943078
0.0757982
0.0587223
0.0417721
0.0232035
0.00650933
-0.00533354
-0.0153038
-0.0260792
-0.0344205
-0.0374336
-0.0388347
-0.0410902
-0.0415433
-0.0383376
-0.0346395
-0.0327261
-0.0320386
-0.0284192
-0.0197417
-0.00974425
-0.0034733
-0.00305547
-0.00907906
-0.0193952
-0.0282986
-0.0337252
-0.0361589
-0.0379706
-0.0399502
-0.0364825
-0.0208522
0.00741744
0.0417238
0.0726244
0.0941986
0.108626
0.120195
0.130107
0.135197
0.129265
0.110204
0.0817768
0.0513847
0.0261218
0.00770806
0.0056192
0.0200437
0.0417246
0.0692575
0.0960902
0.11547
0.12441
0.125114
0.122658
0.118315
0.108741
0.0886594
0.0566077
0.019783
-0.0110735
-0.0292919
-0.03584
-0.0373008
-0.039028
-0.0392707
-0.0351246
-0.0259303
-0.0134028
-0.00346981
0.000559242
-0.00208338
-0.0101014
-0.0186676
-0.023171
-0.0255228
-0.0294398
-0.0344133
-0.0382539
-0.0393604
-0.0400383
-0.0415708
-0.0405631
-0.0337381
-0.0248417
-0.0166153
-0.00561609
0.0109629
0.029692
0.0476952
0.0670007
0.088252
0.106861
0.120152
0.130627
0.138099
0.138099
0.130626
0.120151
0.106859
0.0882509
0.067
0.0476947
0.0296922
0.0109639
-0.00561468
-0.0166136
-0.0248397
-0.0337358
-0.0405606
-0.0415679
-0.0400354
-0.0393581
-0.0382526
-0.0344125
-0.0294391
-0.0255222
-0.023171
-0.0186684
-0.0101034
-0.00208666
0.000555203
-0.0034733
-0.0134047
-0.0259305
-0.0351232
-0.0392685
-0.0390254
-0.0372983
-0.0358379
-0.0292905
-0.0110725
0.0197837
0.056608
0.088659
0.108739
0.118313
0.122656
0.125112
0.124409
0.11547
0.0960906
0.0692575
0.0417241
0.0200431
0.00561893
0.00414777
0.0156362
0.0343249
0.058993
0.0836663
0.102407
0.113234
0.118617
0.122684
0.12508
0.120467
0.102763
0.0711597
0.0335891
0.00163173
-0.0182887
-0.0277325
-0.0329068
-0.0387366
-0.0427295
-0.0415094
-0.0341695
-0.0217908
-0.00974222
-0.00208338
-0.000782635
-0.00543425
-0.0120625
-0.0160068
-0.019052
-0.0241288
-0.0296062
-0.0333915
-0.0354189
-0.0382911
-0.0421615
-0.0430579
-0.0379398
-0.030748
-0.0238846
-0.0138766
0.00183769
0.0198546
0.0377785
0.0574287
0.0791157
0.0985189
0.112998
0.124145
0.131556
0.131557
0.124146
0.112999
0.09852
0.0791176
0.0574309
0.0377804
0.0198563
0.00183971
-0.0138745
-0.0238827
-0.0307461
-0.0379376
-0.0430554
-0.0421592
-0.0382894
-0.035418
-0.0333914
-0.0296067
-0.0241294
-0.0190526
-0.0160079
-0.0120646
-0.00543718
-0.000786102
-0.00208665
-0.00974424
-0.021791
-0.034168
-0.0415068
-0.0427267
-0.038734
-0.0329045
-0.0277308
-0.0182878
0.00163197
0.0335889
0.0711593
0.102762
0.120465
0.125077
0.122682
0.118615
0.113234
0.102407
0.0836668
0.0589931
0.0343245
0.0156357
0.00414752
0.00344568
0.0133675
0.0300663
0.0523704
0.0748378
0.092425
0.104158
0.112822
0.121786
0.129366
0.128668
0.113189
0.0827482
0.0456839
0.013965
-0.0066674
-0.0184103
-0.0268749
-0.0364478
-0.0441478
-0.0463643
-0.0421074
-0.031813
-0.0197413
-0.0101014
-0.00543425
-0.00602998
-0.00929299
-0.011165
-0.0134049
-0.0181774
-0.0229238
-0.0254823
-0.0270968
-0.0307216
-0.035847
-0.0381903
-0.0347233
-0.0291334
-0.0235493
-0.0147481
-0.000450883
0.0159734
0.0323868
0.0503393
0.0701301
0.0880699
0.101697
0.111807
0.11812
0.118121
0.11181
0.1017
0.088074
0.0701348
0.0503443
0.0323911
0.0159769
-0.000447852
-0.0147454
-0.023547
-0.0291315
-0.0347215
-0.0381886
-0.0358459
-0.0307215
-0.0270976
-0.0254838
-0.0229254
-0.0181789
-0.0134063
-0.0111667
-0.00929545
-0.00603295
-0.00543716
-0.0101034
-0.0197417
-0.0318116
-0.042105
-0.0463615
-0.0441453
-0.0364457
-0.0268731
-0.0184089
-0.00666678
0.0139648
0.0456832
0.0827472
0.113188
0.128666
0.129364
0.121784
0.112821
0.104158
0.0924255
0.0748385
0.0523708
0.0300661
0.0133671
0.00344548
0.00318817
0.0123694
0.0277355
0.0480872
0.0685324
0.0848841
0.0970569
0.108129
0.120684
0.131908
0.133807
0.119798
0.0904485
0.054389
0.0235913
0.00292736
-0.0102794
-0.0209475
-0.0328832
-0.0428736
-0.047503
-0.046135
-0.0388269
-0.0284199
-0.0186676
-0.0120625
-0.00929299
-0.00919219
-0.00855146
-0.00925798
-0.0128997
-0.0160916
-0.0163874
-0.0162198
-0.0190216
-0.0238924
-0.026496
-0.0240773
-0.0200183
-0.0158882
-0.00849205
0.0039412
0.0177131
0.030994
0.0454614
0.0614394
0.0756853
0.0862517
0.0938457
0.0984817
0.098483
0.0938494
0.0862573
0.0756919
0.0614465
0.0454685
0.0310006
0.0177186
0.0039455
-0.00848866
-0.0158855
-0.0200164
-0.0240762
-0.0264958
-0.0238931
-0.0190234
-0.0162224
-0.0163901
-0.0160941
-0.0129016
-0.00925956
-0.00855328
-0.00919448
-0.00929544
-0.0120646
-0.0186684
-0.0284192
-0.0388248
-0.0461324
-0.0475007
-0.0428718
-0.0328818
-0.0209461
-0.0102782
0.00292795
0.023591
0.054388
0.0904473
0.119797
0.133805
0.131906
0.120683
0.108128
0.0970568
0.0848847
0.0685332
0.0480877
0.0277355
0.0123691
0.00318802
0.0028825
0.011238
0.025197
0.0435557
0.0620317
0.077235
0.0898684
0.103205
0.118932
0.133229
0.137225
0.124367
0.0960603
0.0611601
0.0313941
0.0108278
-0.00351425
-0.0157729
-0.028954
-0.039732
-0.0452101
-0.0454474
-0.0405255
-0.0320398
-0.023171
-0.0160068
-0.011165
-0.00855146
-0.00596155
-0.00557509
-0.00842623
-0.0102862
-0.00836725
-0.00617805
-0.00743397
-0.0108161
-0.0123541
-0.010308
-0.0078916
-0.00562829
-5.44572e-05
0.00969515
0.0193279
0.0277344
0.0371997
0.0478206
0.0564697
0.062195
0.0663721
0.0692081
0.0692093
0.066376
0.0622015
0.056478
0.0478294
0.0372084
0.0277428
0.0193353
0.00970081
-5.05201e-05
-0.00562559
-0.00789015
-0.0103081
-0.0123559
-0.010819
-0.00743737
-0.00618151
-0.00837034
-0.0102886
-0.00842767
-0.00557613
-0.0059629
-0.00855327
-0.0111667
-0.0160079
-0.023171
-0.0320385
-0.0405235
-0.0454453
-0.0452083
-0.0397307
-0.0289528
-0.0157715
-0.00351308
0.0108283
0.0313936
0.0611587
0.0960587
0.124366
0.137224
0.133228
0.118931
0.103204
0.0898683
0.0772356
0.0620325
0.0435562
0.025197
0.0112377
0.00288237
0.00236543