/*--------------------------------*- C++ -*----------------------------------*\
  =========                 |
  \\      /  F ield         | OpenFOAM: The Open Source CFD Toolbox
   \\    /   O peration     | Website:  https://openfoam.org
    \\  /    A nd           | Version:  10
     \\/     M anipulation  |
\*---------------------------------------------------------------------------*/
FoamFile
{
    format      ascii;
    class       volScalarField;
    location    "54";
    object      h;
}
// * * * * * * * * * * * * * * * * * * * * * * * * * * * * * * * * * * * * * //

dimensions      [0 1 0 0 0 0 0];

internalField   nonuniform List<scalar> 
10000
(
9.4051e-05
0.000173353
6.70165e-05
-3.9515e-05
8.70335e-05
0.000409302
0.000564401
0.000137286
-0.000790898
-0.0014153
-0.000853665
0.00079863
0.00222552
0.00224181
0.00119428
0.000585322
0.00143943
0.00348543
0.00586854
0.00790427
0.00904875
0.00898711
0.00814867
0.00733129
0.00675912
0.00591302
0.00432574
0.00208756
-0.000644959
-0.00373296
-0.00670279
-0.00907946
-0.0108389
-0.0121368
-0.0130798
-0.0137135
-0.0140841
-0.0141874
-0.0138254
-0.0127968
-0.0111032
-0.00875143
-0.00575756
-0.00235358
0.00118889
0.00466224
0.0078017
0.0103493
0.0121511
0.0130925
0.0130925
0.0121511
0.0103493
0.00780191
0.00466274
0.00118971
-0.0023525
-0.00575638
-0.00875041
-0.0111026
-0.0127968
-0.0138263
-0.0141891
-0.0140864
-0.0137162
-0.0130824
-0.0121391
-0.0108405
-0.00908017
-0.00670257
-0.00373191
-0.00064332
0.00208948
0.00432765
0.00591469
0.00676036
0.00733204
0.00814903
0.00898719
0.0090486
0.00790394
0.00586813
0.00348501
0.00143903
0.000585032
0.0011942
0.00224193
0.00222565
0.000798621
-0.00085378
-0.00141537
-0.000790856
0.000137392
0.000564487
0.000409338
8.70428e-05
-3.95005e-05
6.7054e-05
0.000173398
9.4069e-05
0.000173353
0.000223117
-0.000217335
-0.000589412
-0.000209715
0.000803935
0.0013793
0.000297066
-0.00220891
-0.00381241
-0.00199248
0.00290014
0.00699061
0.00682804
0.0034453
0.00127025
0.00336535
0.00903932
0.0158586
0.0218283
0.0253611
0.0255507
0.0236223
0.0218171
0.0206875
0.0186355
0.0142245
0.00764358
-0.000636865
-0.0101149
-0.0192969
-0.0266807
-0.0320845
-0.0358912
-0.0384019
-0.0398006
-0.040303
-0.0399823
-0.0383699
-0.0349649
-0.0298135
-0.0229559
-0.0144329
-0.00487168
0.00498963
0.0146026
0.0232605
0.0302651
0.0352097
0.0377934
0.0377934
0.0352099
0.0302656
0.0232615
0.0146043
0.00499199
-0.00486886
-0.0144301
-0.0229536
-0.0298124
-0.0349655
-0.0383725
-0.0399869
-0.0403091
-0.0398076
-0.0384089
-0.0358971
-0.0320887
-0.0266827
-0.0192965
-0.0101123
-0.000632695
0.00764856
0.0142296
0.01864
0.020691
0.0218193
0.0236235
0.0255512
0.025361
0.0218276
0.0158576
0.00903818
0.00336418
0.00126934
0.00344499
0.00682829
0.00699091
0.00290005
-0.00199289
-0.00381271
-0.00220888
0.000297313
0.00137951
0.000803984
-0.00020977
-0.000589462
-0.000217301
0.000223205
0.000173396
6.70165e-05
-0.000217335
-0.00115208
-0.00182439
-0.00116503
0.000612062
0.00178264
0.000414539
-0.00310653
-0.00515658
-0.0019009
0.00591747
0.0121146
0.0113024
0.00518776
0.000863504
0.00333784
0.0117681
0.0224298
0.0321116
0.0382656
0.0394952
0.037671
0.0361095
0.035434
0.0329519
0.0262509
0.0154614
0.00140072
-0.0148482
-0.0306445
-0.043348
-0.0524085
-0.0582771
-0.0614386
-0.0623451
-0.0615561
-0.0594066
-0.0554443
-0.0491012
-0.0405364
-0.029859
-0.0171183
-0.00316391
0.01099
0.0246361
0.0368436
0.0466621
0.0535657
0.0571751
0.0571755
0.0535667
0.0466639
0.0368461
0.0246392
0.0109936
-0.00316035
-0.0171152
-0.0298571
-0.0405362
-0.0491032
-0.0554486
-0.0594131
-0.0615642
-0.0623541
-0.0614474
-0.0582847
-0.052414
-0.0433508
-0.0306443
-0.0148453
0.00140582
0.0154678
0.0262576
0.0329581
0.035439
0.0361131
0.0376734
0.0394966
0.0382661
0.0321113
0.0224288
0.0117666
0.00333602
0.000861952
0.00518708
0.0113026
0.0121149
0.00591716
-0.00190174
-0.00515729
-0.0031067
0.00041475
0.00178283
0.000611987
-0.00116531
-0.00182466
-0.0011522
-0.000217302
6.70512e-05
-3.9515e-05
-0.000589412
-0.00182439
-0.00256514
-0.00149533
0.00103801
0.00276015
0.00120538
-0.0030334
-0.00529203
-0.000813734
0.00917212
0.0166463
0.0148327
0.00608145
-0.000333992
0.00226195
0.0131076
0.0274505
0.0408526
0.04981
0.0525443
0.0514071
0.0503981
0.0500569
0.0468321
0.037558
0.0222369
0.00211821
-0.0208968
-0.0430041
-0.0604998
-0.0723959
-0.0791668
-0.0815638
-0.0804949
-0.0770242
-0.0718745
-0.0648585
-0.0555327
-0.0441689
-0.030949
-0.0159079
8.80389e-05
0.0159651
0.0310487
0.0444254
0.0550989
0.0625629
0.0664732
0.0664739
0.062565
0.0551021
0.0444294
0.031053
0.0159691
9.11675e-05
-0.0159061
-0.030949
-0.0441708
-0.0555366
-0.0648642
-0.0718818
-0.0770325
-0.0805037
-0.0815722
-0.0791741
-0.0724014
-0.060503
-0.0430046
-0.0208945
0.0021228
0.0222431
0.037565
0.046839
0.0500629
0.0504029
0.0514108
0.0525472
0.0498119
0.0408533
0.02745
0.0131061
0.00225971
-0.000336115
0.00608029
0.0148326
0.0166464
0.00917144
-0.000815104
-0.00529327
-0.00303392
0.00120546
0.00276029
0.00103784
-0.00149578
-0.00256563
-0.00182466
-0.000589462
-3.95025e-05
8.70335e-05
-0.000209715
-0.00116503
-0.00149533
0.000166646
0.00330156
0.00524471
0.00326569
-0.00172314
-0.00426537
0.000922169
0.0121075
0.020089
0.0173859
0.00690467
-0.000621187
0.00264414
0.0161228
0.0342189
0.0511686
0.0624535
0.066047
0.0646866
0.0627843
0.0608722
0.055106
0.0420751
0.0217287
-0.00416866
-0.0327701
-0.0593241
-0.0794502
-0.091937
-0.0974431
-0.0971894
-0.0927482
-0.0857595
-0.0772976
-0.0675019
-0.0560846
-0.0433011
-0.0293312
-0.0141531
0.00153499
0.0167727
0.0310387
0.0435998
0.0535495
0.0604724
0.0641195
0.0641204
0.060475
0.0535533
0.0436043
0.031043
0.0167761
0.00153682
-0.0141532
-0.0293334
-0.0433051
-0.0560902
-0.0675086
-0.077305
-0.0857671
-0.0927557
-0.0971965
-0.0974493
-0.091942
-0.0794536
-0.0593254
-0.0327691
-0.00416531
0.0217339
0.0420814
0.0551128
0.0608787
0.06279
0.0646915
0.0660512
0.0624568
0.0511706
0.0342192
0.0161215
0.00264181
-0.000623641
0.00690313
0.0173855
0.0200888
0.0121065
0.000920386
-0.00426704
-0.00172393
0.00326573
0.00524497
0.00330155
0.000166288
-0.00149577
-0.0011653
-0.000209767
8.70422e-05
0.000409302
0.000803935
0.000612062
0.00103801
0.00330156
0.00671221
0.00843734
0.00580152
0.00015135
-0.00254114
0.0031092
0.0148732
0.0230554
0.0201481
0.00944341
0.00224397
0.0068982
0.0230435
0.0444433
0.0639737
0.0761039
0.0787753
0.0751317
0.0698733
0.0637523
0.0533285
0.0355354
0.010379
-0.0198694
-0.0514645
-0.0791163
-0.0983696
-0.108184
-0.109681
-0.104796
-0.0959287
-0.0852655
-0.0740766
-0.0627211
-0.050947
-0.0387488
-0.026139
-0.0129617
0.000396478
0.0131989
0.0251028
0.0355992
0.0439031
0.0496758
0.0527544
0.0527552
0.0496778
0.043906
0.0356024
0.0251056
0.0132006
0.000396623
-0.0129634
-0.0261424
-0.0387538
-0.050953
-0.0627277
-0.0740834
-0.0852722
-0.095935
-0.104802
-0.109687
-0.108189
-0.0983731
-0.0791183
-0.0514646
-0.0198674
0.010383
0.0355408
0.0533346
0.0637584
0.0698791
0.0751371
0.0787803
0.0761082
0.0639767
0.0444445
0.0230428
0.00689609
0.00224154
0.00944178
0.0201476
0.0230552
0.0148723
0.00310739
-0.00254292
0.000150518
0.0058017
0.00843791
0.00671256
0.00330155
0.00103785
0.000611995
0.000803988
0.000409337
0.000564401
0.0013793
0.00178264
0.00276015
0.00524471
0.00843734
0.00959674
0.0064077
0.00068988
-0.00141751
0.00510831
0.0175226
0.0262491
0.0243133
0.015131
0.00962464
0.0159975
0.0341609
0.0575878
0.0779934
0.0889948
0.0887821
0.080972
0.0704708
0.0584403
0.0423957
0.0200369
-0.0085714
-0.0408285
-0.0722971
-0.0975724
-0.112663
-0.117014
-0.112397
-0.101606
-0.0879451
-0.0740881
-0.0613552
-0.0501655
-0.0401376
-0.0307508
-0.0216385
-0.0124011
-0.00301288
0.0060706
0.0146388
0.0223569
0.0285333
0.0328568
0.0352158
0.035216
0.0328573
0.028534
0.0223574
0.0146389
0.00606992
-0.00301449
-0.0124037
-0.0216421
-0.0307552
-0.0401426
-0.0501709
-0.0613608
-0.0740936
-0.0879505
-0.101611
-0.112402
-0.117018
-0.112666
-0.097575
-0.0722981
-0.0408276
-0.0085687
0.020041
0.0424007
0.0584456
0.0704761
0.0809772
0.0887873
0.0889997
0.0779972
0.0575898
0.0341609
0.0159959
0.00962261
0.0151296
0.024313
0.0262491
0.017522
0.00510669
-0.00141927
0.000688995
0.00640788
0.00959743
0.00843791
0.00524497
0.0027603
0.00178283
0.00137951
0.000564482
0.000137286
0.000297066
0.000414539
0.00120538
0.00326569
0.00580152
0.0064077
0.00333338
-0.00123901
-0.00145269
0.00686177
0.0204139
0.0302571
0.0303796
0.0240498
0.020973
0.0286693
0.047464
0.0710546
0.0904468
0.0987124
0.0945475
0.0820442
0.0661588
0.0484676
0.0276554
0.00230216
-0.0276127
-0.0594595
-0.0883751
-0.109116
-0.118419
-0.116268
-0.105041
-0.0883479
-0.0703678
-0.0542245
-0.0412529
-0.0318373
-0.0253765
-0.0206811
-0.0168242
-0.0130605
-0.00890767
-0.00451513
-2.47583e-05
0.00433092
0.00794461
0.0105198
0.0119909
0.0119906
0.0105186
0.00794272
0.00432842
-2.7707e-05
-0.00451832
-0.00891092
-0.0130636
-0.0168273
-0.0206841
-0.0253796
-0.0318407
-0.0412566
-0.0542286
-0.0703722
-0.0883527
-0.105045
-0.116273
-0.118423
-0.109119
-0.0883769
-0.0594595
-0.0276111
0.002305
0.0276591
0.0484719
0.0661633
0.0820489
0.0945527
0.0987178
0.0904515
0.0710576
0.0474651
0.0286687
0.0209718
0.0240488
0.0303795
0.0302573
0.0204134
0.00686015
-0.00145468
-0.00124036
0.00333302
0.00640788
0.00580169
0.00326573
0.00120545
0.000414747
0.000297307
0.000137383
-0.000790898
-0.00220891
-0.00310653
-0.0030334
-0.00172314
0.00015135
0.00068988
-0.00123901
-0.00334177
-0.000536179
0.0100838
0.0247374
0.0355624
0.0378537
0.0345385
0.0335112
0.0412752
0.0587764
0.0805218
0.0973918
0.102245
0.0943698
0.0781656
0.0583893
0.0368706
0.0133671
-0.0127942
-0.0418971
-0.0715702
-0.0967672
-0.112505
-0.116223
-0.108256
-0.0913682
-0.0698078
-0.0484727
-0.0309082
-0.0185355
-0.0117095
-0.00963782
-0.0104841
-0.0127028
-0.0151742
-0.01698
-0.0179392
-0.0181387
-0.0177281
-0.0171747
-0.016716
-0.0163481
-0.0163489
-0.0167184
-0.0171785
-0.0177329
-0.0181439
-0.0179443
-0.0169845
-0.0151778
-0.0127054
-0.0104859
-0.00963908
-0.0117107
-0.018537
-0.0309104
-0.0484758
-0.0698117
-0.0913727
-0.108261
-0.116228
-0.112508
-0.0967699
-0.0715714
-0.0418969
-0.0127928
0.0133695
0.0368737
0.058393
0.07817
0.0943751
0.102252
0.0973975
0.0805262
0.0587789
0.041276
0.033511
0.0345381
0.0378537
0.0355625
0.0247367
0.010082
-0.000538658
-0.00334388
-0.00124036
0.000688992
0.000150513
-0.00172393
-0.00303393
-0.0031067
-0.00220888
-0.000790864
-0.0014153
-0.00381241
-0.00515658
-0.00529203
-0.00426537
-0.00254114
-0.00141751
-0.00145269
-0.000536179
0.00524258
0.0173375
0.0317164
0.0420571
0.0452399
0.0437387
0.043306
0.049264
0.0633536
0.0814106
0.094783
0.0964012
0.0860029
0.0679453
0.0464674
0.0234401
-0.000526042
-0.0255307
-0.0521763
-0.0785213
-0.0995506
-0.110572
-0.109579
-0.0970303
-0.0758419
-0.0506614
-0.0268589
-0.00832789
0.00335427
0.0078365
0.0059896
8.11789e-05
-0.00784283
-0.0163608
-0.0241825
-0.0307403
-0.0359852
-0.0399173
-0.0427593
-0.0446457
-0.0455143
-0.0455153
-0.0446487
-0.0427638
-0.0399229
-0.0359912
-0.0307461
-0.0241876
-0.0163648
-0.00784545
7.98445e-05
0.00598929
0.00783679
0.00335461
-0.00832804
-0.0268599
-0.0506637
-0.0758453
-0.0970346
-0.109584
-0.110576
-0.0995546
-0.078524
-0.0521778
-0.025531
-0.000525309
0.0234418
0.04647
0.0679489
0.086008
0.0964075
0.0947895
0.0814161
0.0633575
0.0492663
0.0433071
0.0437392
0.0452402
0.0420572
0.0317157
0.0173356
0.00523999
-0.000538658
-0.00145468
-0.00141927
-0.00254292
-0.00426703
-0.00529327
-0.00515728
-0.00381271
-0.00141538
-0.000853665
-0.00199248
-0.0019009
-0.000813734
0.000922169
0.0031092
0.00510831
0.00686177
0.0100838
0.0173375
0.0287338
0.0404353
0.0480862
0.0503031
0.0490066
0.0476691
0.0503573
0.0596556
0.0730396
0.0827779
0.0820527
0.0707167
0.0526351
0.0312824
0.00847366
-0.0144985
-0.0372617
-0.0606091
-0.0830267
-0.0997148
-0.106354
-0.101395
-0.0853194
-0.0610754
-0.0335033
-0.00812022
0.0110223
0.0222138
0.0251094
0.0205253
0.010844
-0.0016313
-0.0153199
-0.0286448
-0.0405741
-0.0507785
-0.0590003
-0.0651346
-0.0692323
-0.0712606
-0.0712616
-0.069235
-0.0651387
-0.0590053
-0.0507839
-0.0405792
-0.0286494
-0.0153237
-0.00163398
0.0108426
0.0205251
0.0251103
0.0222154
0.011024
-0.00811913
-0.0335034
-0.0610772
-0.0853228
-0.1014
-0.10636
-0.0997199
-0.083031
-0.0606124
-0.0372638
-0.0144997
0.00847346
0.0312833
0.0526373
0.0707205
0.0820581
0.0827841
0.0730454
0.0596604
0.0503607
0.0476713
0.0490079
0.050304
0.0480867
0.0404351
0.0287326
0.0173356
0.010082
0.00686015
0.00510669
0.0031074
0.000920399
-0.000815091
-0.00190173
-0.00199289
-0.000853779
0.00079863
0.00290014
0.00591747
0.00917212
0.0121075
0.0148732
0.0175226
0.0204139
0.0247374
0.0317164
0.0404353
0.0477771
0.0516291
0.0522664
0.0508592
0.0485339
0.0480405
0.0526825
0.061637
0.0683944
0.0665227
0.0555811
0.0385108
0.0179165
-0.00435359
-0.0263361
-0.0471593
-0.0675229
-0.0862144
-0.0988547
-0.101685
-0.0935931
-0.0751064
-0.0491721
-0.0206567
0.00511193
0.0241685
0.03474
0.0365182
0.0301959
0.0180022
0.00226062
-0.0154118
-0.0332381
-0.0497041
-0.0641283
-0.0759609
-0.0847704
-0.0905878
-0.0935124
-0.093513
-0.0905897
-0.0847732
-0.0759644
-0.064132
-0.0497077
-0.0332415
-0.0154148
0.00225824
0.0180007
0.0301955
0.036519
0.034742
0.0241712
0.00511445
-0.0206551
-0.0491721
-0.0751083
-0.0935969
-0.10169
-0.0988603
-0.0862199
-0.0675276
-0.0471631
-0.0263391
-0.00435575
0.0179153
0.0385109
0.055583
0.0665262
0.0683992
0.0616421
0.0526873
0.0480446
0.0485371
0.0508617
0.0522681
0.0516303
0.0477776
0.0404351
0.0317157
0.0247367
0.0204134
0.017522
0.0148723
0.0121065
0.00917145
0.00591717
0.00290005
0.000798621
0.00222552
0.00699061
0.0121146
0.0166463
0.020089
0.0230554
0.0262491
0.0302571
0.0355624
0.0420571
0.0480862
0.0516291
0.0528204
0.0532472
0.0530497
0.0510457
0.0487027
0.049861
0.0553052
0.059946
0.0578754
0.0480092
0.0320371
0.011729
-0.0108065
-0.0328374
-0.0529368
-0.0714415
-0.0873218
-0.0968475
-0.097028
-0.0871686
-0.067845
-0.0419329
-0.0141616
0.0105771
0.0285634
0.0379716
0.0385305
0.0308333
0.0168647
-0.00110827
-0.0214395
-0.0422465
-0.0616771
-0.0788325
-0.0930054
-0.103529
-0.110438
-0.113959
-0.113959
-0.110439
-0.10353
-0.0930069
-0.0788343
-0.0616791
-0.0422486
-0.0214414
-0.00110988
0.0168636
0.0308329
0.038531
0.0379731
0.0285657
0.0105797
-0.0141593
-0.0419317
-0.0678455
-0.0871708
-0.0970319
-0.0968525
-0.0873273
-0.0714468
-0.0529417
-0.0328417
-0.0108102
0.0117261
0.0320352
0.0480089
0.0578768
0.059949
0.0553093
0.0498656
0.0487074
0.0510501
0.0530534
0.05325
0.0528224
0.0516303
0.0480867
0.0420572
0.0355625
0.0302573
0.0262491
0.0230552
0.0200888
0.0166464
0.0121148
0.00699091
0.00222564
0.00224181
0.00682804
0.0113024
0.0148327
0.0173859
0.0201481
0.0243133
0.0303796
0.0378537
0.0452399
0.0503031
0.0522664
0.0532472
0.0556116
0.0582077
0.0577557
0.0546713
0.0532518
0.0557674
0.0587033
0.0568467
0.0482416
0.0331177
0.0125164
-0.0109508
-0.033722
-0.0538946
-0.0713588
-0.0852434
-0.0926844
-0.0915948
-0.0815752
-0.0631056
-0.0387997
-0.0130983
0.00963831
0.0259535
0.0338544
0.0330247
0.0240505
0.0087849
-0.0104559
-0.0319043
-0.0536909
-0.0739189
-0.0917795
-0.106669
-0.117823
-0.125225
-0.12909
-0.12909
-0.125224
-0.117822
-0.106669
-0.0917796
-0.0739194
-0.0536916
-0.0319051
-0.0104565
0.00878459
0.0240505
0.033025
0.0338551
0.0259547
0.00963984
-0.0130966
-0.0387982
-0.063105
-0.0815759
-0.0915968
-0.0926878
-0.0852479
-0.0713638
-0.0538997
-0.033727
-0.0109555
0.0125123
0.0331145
0.0482396
0.0568463
0.0587046
0.0557703
0.053256
0.0546764
0.0577611
0.0582128
0.0556156
0.05325
0.0522681
0.050304
0.0452402
0.0378537
0.0303795
0.024313
0.0201476
0.0173855
0.0148326
0.0113026
0.00682828
0.00224192
0.00119428
0.0034453
0.00518776
0.00608145
0.00690467
0.00944341
0.015131
0.0240498
0.0345385
0.0437387
0.0490066
0.0508592
0.0530497
0.0582077
0.0637657
0.0647324
0.0608629
0.0569116
0.0564825
0.0577366
0.0563334
0.0493673
0.0354947
0.0150847
-0.00866367
-0.0314471
-0.0511073
-0.0671943
-0.0790719
-0.0849046
-0.0834953
-0.0745116
-0.0580799
-0.0363005
-0.0131966
0.00736472
0.0220968
0.0286901
0.0267111
0.0168679
0.00103856
-0.0183099
-0.0392298
-0.0599916
-0.0789322
-0.0955846
-0.109654
-0.120389
-0.127674
-0.131603
-0.131602
-0.127673
-0.120387
-0.109652
-0.0955832
-0.0789313
-0.0599911
-0.0392294
-0.0183095
0.00103911
0.0168684
0.0267116
0.0286905
0.0220971
0.00736517
-0.0131958
-0.0362994
-0.0580788
-0.0745109
-0.0834954
-0.0849059
-0.0790746
-0.0671981
-0.0511118
-0.0314521
-0.00866879
0.01508
0.0354907
0.0493641
0.0563314
0.0577362
0.0564839
0.0569147
0.0608676
0.0647382
0.0637716
0.0582127
0.0530534
0.0508617
0.0490079
0.0437392
0.0345381
0.0240488
0.0151296
0.00944179
0.00690313
0.00608029
0.00518708
0.00344499
0.0011942
0.000585322
0.00127025
0.000863504
-0.000333992
-0.000621187
0.00224397
0.00962464
0.020973
0.0335112
0.043306
0.0476691
0.0485339
0.0510457
0.0577557
0.0647324
0.0657662
0.06036
0.0536961
0.0504448
0.0503609
0.0500107
0.0455289
0.0339613
0.0150169
-0.00755626
-0.0289121
-0.046897
-0.0609183
-0.0706305
-0.0751999
-0.0741091
-0.0668452
-0.0529892
-0.033991
-0.0134342
0.0051998
0.0187488
0.0246037
0.0222367
0.0125452
-0.00257436
-0.0205966
-0.0394959
-0.0577954
-0.074155
-0.0884115
-0.100555
-0.10991
-0.116333
-0.119891
-0.11989
-0.116332
-0.109909
-0.100552
-0.0884091
-0.0741528
-0.0577936
-0.0394943
-0.0205953
-0.00257324
0.0125463
0.0222377
0.0246044
0.0187492
0.00520001
-0.013434
-0.0339905
-0.0529883
-0.066844
-0.074108
-0.0751995
-0.0706312
-0.0609202
-0.0469001
-0.0289163
-0.00756103
0.0150122
0.0339568
0.0455247
0.0500072
0.0503586
0.050444
0.0536972
0.060363
0.0657711
0.0647382
0.0577611
0.0510501
0.0485371
0.0476713
0.0433071
0.033511
0.0209718
0.00962262
0.00224155
-0.000623636
-0.000336114
0.000861954
0.00126934
0.000585035
0.00143943
0.00336535
0.00333784
0.00226195
0.00264414
0.0068982
0.0159975
0.0286693
0.0412752
0.049264
0.0503573
0.0480405
0.0487027
0.0546713
0.0608629
0.06036
0.0526973
0.0433445
0.0376348
0.0366435
0.0377597
0.0362216
0.027521
0.0106969
-0.0100888
-0.0296662
-0.045988
-0.0583743
-0.0666511
-0.0707486
-0.0705498
-0.0652488
-0.0539119
-0.0374253
-0.0190176
-0.00186715
0.0110535
0.0170294
0.0155189
0.00755258
-0.0051651
-0.0203402
-0.0360968
-0.0512495
-0.0646428
-0.0761136
-0.0857311
-0.0929299
-0.0977182
-0.100393
-0.100393
-0.0977175
-0.0929286
-0.085729
-0.0761108
-0.0646397
-0.0512466
-0.0360943
-0.0203383
-0.00516368
0.00755383
0.0155201
0.0170307
0.0110546
-0.00186646
-0.0190173
-0.0374251
-0.0539116
-0.0652479
-0.0705484
-0.0707471
-0.06665
-0.0583742
-0.0459892
-0.0296688
-0.0100926
0.0106926
0.0275163
0.0362166
0.0377548
0.0366392
0.0376316
0.043343
0.052698
0.060363
0.0608676
0.0546764
0.0487074
0.0480446
0.0503607
0.0492663
0.041276
0.0286687
0.0159959
0.00689609
0.00264181
0.00225971
0.00333602
0.00336419
0.00143904
0.00348543
0.00903932
0.0117681
0.0131076
0.0161228
0.0230435
0.0341609
0.047464
0.0587764
0.0633536
0.0596556
0.0526825
0.049861
0.0532518
0.0569116
0.0536961
0.0433445
0.0314297
0.0235476
0.0217468
0.0240877
0.0250024
0.0185688
0.00315845
-0.0168304
-0.0360414
-0.05237
-0.064887
-0.0733431
-0.0781318
-0.0793318
-0.0759048
-0.0666569
-0.0521459
-0.0353001
-0.0189784
-0.0058807
0.00135703
0.00217402
-0.00246725
-0.0113434
-0.0226462
-0.0347601
-0.0466791
-0.0572256
-0.0659656
-0.0728944
-0.0776061
-0.0803894
-0.0819137
-0.0819137
-0.0803891
-0.0776054
-0.0728929
-0.0659632
-0.0572226
-0.0466759
-0.0347572
-0.0226438
-0.0113417
-0.00246596
0.0021752
0.00135833
-0.00587935
-0.0189773
-0.0352994
-0.0521458
-0.0666572
-0.0759048
-0.0793311
-0.0781304
-0.0733413
-0.0648854
-0.0523694
-0.0360422
-0.0168326
0.00315503
0.0185645
0.0249972
0.0240819
0.021741
0.0235426
0.0314261
0.043343
0.0536972
0.0569147
0.053256
0.0498655
0.0526873
0.0596604
0.0633575
0.0587789
0.0474651
0.0341609
0.0230428
0.0161215
0.013106
0.0117666
0.00903818
0.00348502
0.00586854
0.0158586
0.0224298
0.0274505
0.0342189
0.0444433
0.0575878
0.0710546
0.0805218
0.0814106
0.0730396
0.061637
0.0553052
0.0557674
0.0564825
0.0504448
0.0376348
0.0235476
0.0137665
0.0110226
0.0139158
0.0161895
0.0107241
-0.00471913
-0.0256552
-0.0465578
-0.0649358
-0.0793647
-0.0893102
-0.0954485
-0.0980562
-0.0960707
-0.0883467
-0.0752675
-0.0593507
-0.0430362
-0.0287493
-0.019044
-0.014722
-0.0151953
-0.0198654
-0.0273654
-0.0361632
-0.0452032
-0.0532126
-0.0594937
-0.0640208
-0.0666185
-0.0677843
-0.0683855
-0.0683854
-0.0677841
-0.066618
-0.0640199
-0.0594923
-0.0532106
-0.0452006
-0.0361604
-0.0273627
-0.0198632
-0.0151938
-0.014721
-0.0190431
-0.0287483
-0.0430352
-0.0593499
-0.0752672
-0.088347
-0.0960712
-0.0980564
-0.095448
-0.0893088
-0.0793628
-0.0649341
-0.046557
-0.0256557
-0.00472113
0.0107207
0.0161847
0.0139099
0.0110163
0.0137604
0.0235426
0.0376316
0.050444
0.0564839
0.0557703
0.0553092
0.0616421
0.0730454
0.0814161
0.0805262
0.0710576
0.0575898
0.0444445
0.0342192
0.02745
0.0224288
0.0158576
0.00586814
0.00790427
0.0218283
0.0321116
0.0408526
0.0511686
0.0639737
0.0779934
0.0904468
0.0973918
0.094783
0.0827779
0.0683944
0.059946
0.0587033
0.0577366
0.0503609
0.0366435
0.0217468
0.0110226
0.00765415
0.0107005
0.0133886
0.00773313
-0.00894199
-0.032161
-0.0561694
-0.077745
-0.0947578
-0.10635
-0.113559
-0.117077
-0.116029
-0.109475
-0.0975728
-0.082168
-0.0651865
-0.0489268
-0.0360844
-0.0280262
-0.0247181
-0.0260409
-0.0307936
-0.0372303
-0.0440647
-0.0500406
-0.0544178
-0.0572895
-0.0587347
-0.0592318
-0.059482
-0.0594818
-0.0592313
-0.0587341
-0.0572889
-0.0544172
-0.0500398
-0.0440634
-0.0372283
-0.0307912
-0.0260385
-0.0247162
-0.028025
-0.0360838
-0.0489263
-0.0651859
-0.0821674
-0.0975722
-0.109475
-0.116029
-0.117078
-0.113559
-0.10635
-0.0947565
-0.0777431
-0.0561674
-0.0321597
-0.00894198
0.00773153
0.0133852
0.0106955
0.00764809
0.0110163
0.021741
0.0366392
0.0503586
0.0577362
0.0587046
0.0599489
0.0683992
0.0827841
0.0947895
0.0973975
0.0904515
0.0779972
0.0639767
0.0511706
0.0408532
0.0321113
0.0218276
0.00790395
0.00904875
0.0253611
0.0382656
0.04981
0.0624535
0.0761039
0.0889948
0.0987124
0.102245
0.0964012
0.0820527
0.0665227
0.0578754
0.0568467
0.0563334
0.0500107
0.0377597
0.0240877
0.0139158
0.0107005
0.013874
0.0163171
0.00959168
-0.0090856
-0.0351943
-0.0626068
-0.0871671
-0.106048
-0.118304
-0.125615
-0.129292
-0.128664
-0.122919
-0.111836
-0.0964315
-0.0782386
-0.0596963
-0.0438624
-0.0327722
-0.026818
-0.0260257
-0.0291434
-0.0341043
-0.039422
-0.0440631
-0.0474009
-0.0496127
-0.0509324
-0.0516203
-0.05199
-0.0519898
-0.0516198
-0.0509318
-0.0496122
-0.0474007
-0.044063
-0.0394218
-0.0341035
-0.0291419
-0.0260237
-0.0268158
-0.0327705
-0.0438614
-0.0596959
-0.0782385
-0.0964313
-0.111835
-0.122918
-0.128663
-0.129293
-0.125615
-0.118305
-0.106048
-0.0871655
-0.0626042
-0.0351914
-0.00908336
0.00959254
0.016316
0.0138707
0.0106955
0.0139099
0.0240819
0.0377548
0.0500072
0.0563314
0.0568463
0.0578768
0.0665262
0.0820581
0.0964075
0.102252
0.0987178
0.0889997
0.0761082
0.0624568
0.0498119
0.0382661
0.025361
0.0090486
0.00898711
0.0255507
0.0394952
0.0525443
0.066047
0.0787753
0.0887821
0.0945475
0.0943698
0.0860029
0.0707167
0.0555811
0.0480092
0.0482416
0.0493673
0.0455289
0.0362216
0.0250024
0.0161895
0.0133886
0.0163171
0.0177518
0.00929892
-0.0115105
-0.0400051
-0.0696607
-0.0955133
-0.114328
-0.125436
-0.131383
-0.13408
-0.132902
-0.126976
-0.115636
-0.0992088
-0.079188
-0.0583696
-0.0401634
-0.027044
-0.0194687
-0.0172909
-0.0192278
-0.0230925
-0.0274158
-0.0315127
-0.034777
-0.0372077
-0.039026
-0.0402392
-0.0408385
-0.0408384
-0.0402389
-0.0390255
-0.0372073
-0.0347767
-0.0315127
-0.0274161
-0.0230927
-0.0192275
-0.0172899
-0.0194669
-0.027042
-0.0401617
-0.0583687
-0.0791879
-0.0992091
-0.115636
-0.126975
-0.132901
-0.13408
-0.131383
-0.125437
-0.114328
-0.0955125
-0.0696585
-0.0400018
-0.0115068
0.00930193
0.0177531
0.016316
0.0133852
0.0161847
0.0249972
0.0362166
0.0455247
0.0493641
0.0482397
0.0480089
0.055583
0.0707205
0.086008
0.0943751
0.0945527
0.0887873
0.0787803
0.0660512
0.0525472
0.0394966
0.0255512
0.00898719
0.00814867
0.0236223
0.037671
0.0514071
0.0646866
0.0751317
0.080972
0.0820442
0.0781656
0.0679453
0.0526351
0.0385108
0.0320371
0.0331177
0.0354947
0.0339613
0.027521
0.0185688
0.0107241
0.00773313
0.00959168
0.00929892
-0.00102472
-0.0232088
-0.0524367
-0.0820342
-0.10664
-0.123021
-0.131066
-0.134174
-0.134609
-0.1316
-0.124085
-0.111091
-0.0926046
-0.0703985
-0.047584
-0.0276622
-0.0131882
-0.00440223
-0.000917553
-0.00164523
-0.0045739
-0.00837525
-0.0126151
-0.0164762
-0.0195572
-0.0219954
-0.0236435
-0.0243513
-0.0243514
-0.0236436
-0.0219954
-0.019557
-0.016476
-0.0126149
-0.00837537
-0.00457428
-0.00164559
-0.000917463
-0.00440132
-0.0131865
-0.0276603
-0.0475825
-0.0703978
-0.0926047
-0.111091
-0.124086
-0.131599
-0.134608
-0.134173
-0.131065
-0.123022
-0.10664
-0.082033
-0.052434
-0.023205
-0.00102067
0.00930193
0.00959254
0.00773152
0.0107207
0.0185644
0.0275163
0.0339568
0.0354907
0.0331145
0.0320352
0.0385109
0.0526373
0.067949
0.07817
0.0820489
0.0809772
0.0751371
0.0646915
0.0514108
0.0376734
0.0236235
0.00814903
0.00733129
0.0218171
0.0361095
0.0503981
0.0627843
0.0698733
0.0704708
0.0661588
0.0583893
0.0464674
0.0312824
0.0179165
0.011729
0.0125164
0.0150847
0.0150169
0.0106969
0.00315845
-0.00471913
-0.00894199
-0.0090856
-0.0115105
-0.0232088
-0.0452781
-0.072987
-0.100005
-0.121073
-0.133288
-0.137141
-0.136571
-0.133837
-0.128015
-0.117984
-0.102735
-0.0821942
-0.0583723
-0.0343481
-0.0133236
0.00228279
0.0123322
0.0171645
0.0174566
0.0149775
0.0110732
0.00620251
0.00153158
-0.00218106
-0.00509011
-0.00701117
-0.00773675
-0.00773688
-0.00701147
-0.00509045
-0.00218128
0.00153162
0.00620281
0.0110735
0.0149776
0.0174564
0.0171642
0.0123321
0.00228342
-0.0133222
-0.0343463
-0.0583708
-0.0821935
-0.102736
-0.117984
-0.128016
-0.133837
-0.13657
-0.137141
-0.133288
-0.121073
-0.100005
-0.0729857
-0.0452753
-0.023205
-0.0115068
-0.00908336
-0.00894198
-0.00472112
0.00315503
0.0106926
0.0150121
0.01508
0.0125123
0.011726
0.0179153
0.0312833
0.04647
0.058393
0.0661633
0.0704761
0.0698791
0.06279
0.0504029
0.0361131
0.0218193
0.00733204
0.00675912
0.0206875
0.035434
0.0500569
0.0608722
0.0637523
0.0584403
0.0484676
0.0368706
0.0234401
0.00847366
-0.00435359
-0.0108065
-0.0109508
-0.00866367
-0.00755626
-0.0100888
-0.0168304
-0.0256552
-0.032161
-0.0351943
-0.0400051
-0.0524367
-0.072987
-0.0974457
-0.120413
-0.137093
-0.144965
-0.144859
-0.140736
-0.134651
-0.125809
-0.113376
-0.0965418
-0.0751316
-0.0509975
-0.0267494
-0.00503727
0.0117783
0.0232194
0.0292249
0.030068
0.0274329
0.0229236
0.0172598
0.0119255
0.007822
0.00463232
0.00252068
0.00177541
0.00177529
0.00252036
0.00463188
0.00782155
0.0119252
0.0172599
0.0229241
0.0274334
0.0300682
0.0292246
0.0232188
0.0117779
-0.00503692
-0.0267482
-0.0509958
-0.0751302
-0.0965413
-0.113376
-0.12581
-0.134652
-0.140736
-0.144859
-0.144965
-0.137093
-0.120414
-0.0974456
-0.0729857
-0.052434
-0.0400018
-0.0351914
-0.0321597
-0.0256557
-0.0168326
-0.0100926
-0.00756104
-0.00866879
-0.0109555
-0.0108102
-0.00435576
0.00847345
0.0234418
0.0368737
0.0484719
0.0584456
0.0637584
0.0608787
0.0500629
0.035439
0.020691
0.00676035
0.00591302
0.0186355
0.0329519
0.0468321
0.055106
0.0533285
0.0423957
0.0276554
0.0133671
-0.000526042
-0.0144985
-0.0263361
-0.0328374
-0.033722
-0.0314471
-0.0289121
-0.0296662
-0.0360414
-0.0465578
-0.0561694
-0.0626068
-0.0696607
-0.0820342
-0.100005
-0.120413
-0.139163
-0.151916
-0.156285
-0.153103
-0.146039
-0.137055
-0.125848
-0.112075
-0.0950732
-0.0742386
-0.0508604
-0.0269852
-0.00482965
0.0130831
0.0256274
0.0323072
0.0332397
0.0301753
0.0250028
0.0186963
0.0129039
0.00852629
0.00508918
0.00277179
0.00196821
0.00196816
0.00277166
0.00508897
0.00852597
0.0129036
0.018696
0.0250029
0.0301756
0.0332401
0.0323073
0.0256271
0.0130825
-0.0048301
-0.026985
-0.0508595
-0.0742372
-0.0950721
-0.112075
-0.125849
-0.137057
-0.14604
-0.153103
-0.156285
-0.151916
-0.139164
-0.120414
-0.100005
-0.082033
-0.0696585
-0.0626042
-0.0561674
-0.046557
-0.0360422
-0.0296688
-0.0289163
-0.0314521
-0.033727
-0.0328417
-0.0263391
-0.0144997
-0.000525312
0.0133694
0.0276591
0.0424007
0.0533346
0.0551128
0.046839
0.0329581
0.01864
0.00591468
0.00432574
0.0142245
0.0262509
0.037558
0.0420751
0.0355354
0.0200369
0.00230216
-0.0127942
-0.0255307
-0.0372617
-0.0471593
-0.0529368
-0.0538946
-0.0511073
-0.046897
-0.045988
-0.05237
-0.0649358
-0.077745
-0.0871671
-0.0955133
-0.10664
-0.121073
-0.137093
-0.151916
-0.16138
-0.162946
-0.157339
-0.148001
-0.137065
-0.124831
-0.111295
-0.0956053
-0.0763289
-0.0540825
-0.0307169
-0.00842496
0.00997056
0.0227593
0.0293201
0.0299454
0.0264931
0.0209334
0.0142507
0.00805931
0.00326995
-0.000592032
-0.00324544
-0.00418492
-0.00418487
-0.0032453
-0.000591902
0.00326993
0.00805903
0.0142502
0.0209329
0.0264928
0.0299456
0.0293207
0.0227597
0.00997046
-0.00842555
-0.0307176
-0.0540828
-0.0763284
-0.0956041
-0.111294
-0.124831
-0.137066
-0.148002
-0.157341
-0.162947
-0.161381
-0.151916
-0.137093
-0.121073
-0.10664
-0.0955124
-0.0871655
-0.0777431
-0.0649341
-0.0523694
-0.0459892
-0.0469001
-0.0511118
-0.0538997
-0.0529417
-0.0471631
-0.0372639
-0.025531
-0.0127928
0.00230499
0.020041
0.0355408
0.0420814
0.037565
0.0262576
0.0142295
0.00432765
0.00208756
0.00764358
0.0154614
0.0222369
0.0217287
0.010379
-0.0085714
-0.0276127
-0.0418971
-0.0521763
-0.0606091
-0.0675229
-0.0714415
-0.0713588
-0.0671943
-0.0609183
-0.0583743
-0.064887
-0.0793647
-0.0947578
-0.106048
-0.114328
-0.123021
-0.133288
-0.144965
-0.156285
-0.162946
-0.162113
-0.154512
-0.14365
-0.132023
-0.120322
-0.108472
-0.0950693
-0.0777024
-0.0565323
-0.0336842
-0.0116537
0.00648076
0.0187025
0.0245785
0.0247107
0.0209944
0.0152931
0.0084079
0.00180938
-0.00352055
-0.00795454
-0.0110796
-0.0122548
-0.0122547
-0.0110794
-0.00795431
-0.00352046
0.00180922
0.00840744
0.0152925
0.0209939
0.0247107
0.024579
0.0187032
0.00648121
-0.0116539
-0.0336851
-0.0565334
-0.0777028
-0.0950687
-0.108471
-0.120321
-0.132022
-0.143651
-0.154514
-0.162114
-0.162947
-0.156285
-0.144965
-0.133288
-0.123022