/*--------------------------------*- C++ -*----------------------------------*\
  =========                 |
  \\      /  F ield         | OpenFOAM: The Open Source CFD Toolbox
   \\    /   O peration     | Website:  https://openfoam.org
    \\  /    A nd           | Version:  10
     \\/     M anipulation  |
\*---------------------------------------------------------------------------*/
FoamFile
{
    format      ascii;
    class       volScalarField;
    location    "33";
    object      h;
}
// * * * * * * * * * * * * * * * * * * * * * * * * * * * * * * * * * * * * * //

dimensions      [0 1 0 0 0 0 0];

internalField   nonuniform List<scalar> 
10000
(
-0.000423963
-0.000464478
6.59852e-06
6.93579e-05
0.00027477
0.000410987
8.29737e-05
-0.000325399
-0.000480622
-0.00021862
5.25605e-05
-2.04901e-05
-5.17376e-05
0.000172703
0.000150914
-0.000169208
0.000100208
0.000595208
0.000216692
-0.000385852
-0.000159717
8.6393e-05
-0.00063984
-0.00122388
-0.000925502
-0.00046629
-0.00048319
-0.000436726
0.00012042
0.000294555
0.000251393
0.00046992
0.00114349
0.00108649
-0.000454925
-0.00263067
-0.00423954
-0.00435246
-0.00378559
-0.00349179
-0.00462123
-0.0065703
-0.00773934
-0.00595138
-0.000844672
0.00578204
0.0108181
0.0123584
0.0109924
0.00922224
0.00922227
0.0109925
0.0123584
0.0108181
0.00578186
-0.000844952
-0.00595168
-0.00773954
-0.00657033
-0.00462109
-0.00349155
-0.00378541
-0.00435234
-0.00423944
-0.00263042
-0.000454494
0.00108703
0.00114393
0.000470188
0.000251584
0.000294668
0.000120449
-0.00043686
-0.000483356
-0.000466511
-0.000925888
-0.00122428
-0.000639998
8.64844e-05
-0.000159727
-0.000385914
0.0002169
0.000595527
0.000100236
-0.000169319
0.000150986
0.000172781
-5.17778e-05
-2.04441e-05
5.26767e-05
-0.000218727
-0.000480939
-0.000325626
8.30316e-05
0.000411289
0.000274977
6.94535e-05
6.6362e-06
-0.000464922
-0.000424373
-0.000464478
-0.000152189
0.000399827
-0.000219463
-0.000238643
0.000141308
6.77245e-05
-0.000149781
-0.000220393
0.000153379
0.000119366
-0.00042504
-0.000271905
0.000279365
-2.40447e-05
-0.000825448
-0.00028877
0.000681681
-0.00019557
-0.00123339
-7.04335e-05
0.00104031
-0.00022194
-0.00116421
-0.000266466
0.000483836
-0.000238471
-0.000899258
-0.000470574
-0.00105074
-0.00216616
-0.00221299
-0.000936369
-0.00143291
-0.00569813
-0.0114757
-0.0154201
-0.0153194
-0.013166
-0.0118283
-0.0141846
-0.0188227
-0.0211007
-0.0151237
0.000260972
0.0198847
0.0350016
0.0400971
0.0367766
0.0320459
0.032046
0.0367769
0.0400973
0.0350016
0.0198843
0.000260219
-0.0151245
-0.0211012
-0.0188228
-0.0141842
-0.0118278
-0.0131658
-0.0153196
-0.0154206
-0.0114759
-0.00569794
-0.00143246
-0.00093615
-0.00221315
-0.00216638
-0.00105082
-0.000470548
-0.00089932
-0.000238331
0.000484073
-0.000266534
-0.00116448
-0.000221833
0.0010408
-7.04691e-05
-0.00123386
-0.000195512
0.000682086
-0.000288883
-0.000825813
-2.39457e-05
0.000279627
-0.000272049
-0.000425258
0.000119556
0.000153523
-0.000220541
-0.000149851
6.78257e-05
0.000141449
-0.00023883
-0.000219587
0.000400228
-0.000152352
-0.000464922
6.59852e-06
0.000399827
0.000363591
-0.000379025
-0.000479166
-0.000211105
-8.44926e-05
-4.54186e-05
0.000121375
0.000417593
-0.000118148
-0.000707856
-0.00013886
0.000266679
-0.000362543
-0.000910928
-0.000294631
0.000269304
-0.000775983
-0.00147371
-6.80066e-06
0.000919054
-0.000409013
-0.000978687
0.000258877
0.000805018
-0.000298568
-0.000967341
-0.000630856
-0.00167264
-0.00351826
-0.00373026
-0.00251228
-0.00395249
-0.0104307
-0.0189929
-0.0248443
-0.0254812
-0.0230605
-0.0217959
-0.0250912
-0.0312817
-0.0334346
-0.0233354
0.000891178
0.0315414
0.0557256
0.0649852
0.0614079
0.0551184
0.0551185
0.0614081
0.0649853
0.0557254
0.0315406
0.000889893
-0.0233368
-0.0334356
-0.0312818
-0.0250907
-0.0217952
-0.0230601
-0.0254816
-0.0248451
-0.0189935
-0.0104307
-0.00395201
-0.00251203
-0.00373052
-0.00351864
-0.00167273
-0.000630737
-0.000967289
-0.000298317
0.00080549
0.000259106
-0.000978839
-0.000408953
0.000919573
-6.73831e-06
-0.00147429
-0.000776199
0.000269592
-0.000294625
-0.000911281
-0.0003626
0.000267047
-0.000138837
-0.000708295
-0.000118146
0.000417949
0.000121512
-4.53718e-05
-8.44763e-05
-0.000211167
-0.000479495
-0.00037936
0.000363916
0.000400237
6.63792e-06
6.93579e-05
-0.000219463
-0.000379025
0.000151824
0.000328476
0.00013674
-9.81568e-05
-0.000505027
-0.000434937
-0.000233668
-0.000456159
-0.000238694
0.000178063
-0.000124693
-0.000541977
-0.000217858
0.000294409
1.64965e-05
-0.000691324
-0.00063658
-6.42313e-05
-0.000633678
-0.00188484
-0.00191362
-0.000979208
-0.000935142
-0.00174199
-0.00137582
-0.000516054
-0.00105475
-0.00248305
-0.00253276
-0.00183757
-0.00450544
-0.0122722
-0.0224619
-0.0299977
-0.0327487
-0.0321988
-0.0325464
-0.0367267
-0.0429916
-0.0436368
-0.029686
0.00100976
0.0396503
0.0712056
0.0853958
0.0839533
0.0781303
0.0781303
0.0839534
0.0853958
0.0712051
0.0396492
0.00100798
-0.029688
-0.0436383
-0.0429919
-0.036726
-0.0325452
-0.0321979
-0.0327486
-0.029998
-0.022462
-0.0122716
-0.00450434
-0.00183658
-0.00253238
-0.00248301
-0.0010546
-0.000515858
-0.0013759
-0.00174228
-0.000935243
-0.000979336
-0.0019141
-0.00188534
-0.000633642
-6.3902e-05
-0.000636602
-0.000691482
1.67229e-05
0.000294805
-0.000217859
-0.000542259
-0.000124639
0.000178383
-0.000238705
-0.000456344
-0.000233661
-0.000435049
-0.000505276
-9.8221e-05
0.000136925
0.00032885
0.000151921
-0.000379358
-0.000219586
6.945e-05
0.00027477
-0.000238643
-0.000479166
0.000328476
-9.60727e-05
-0.000428086
3.3503e-05
-8.62972e-06
-6.91686e-05
-0.000356244
-0.000456106
8.69856e-05
-0.000202718
-0.000930248
-0.000712454
-2.06763e-05
-0.000272844
-0.00119254
-0.000916596
0.00017594
5.20702e-05
-0.00103767
-0.00100288
-0.000167294
2.04232e-06
-0.000949066
-0.00202687
-0.00185893
-0.00185919
-0.00280169
-0.00447531
-0.00555436
-0.00666613
-0.0106833
-0.0184091
-0.0283511
-0.0365694
-0.041517
-0.0434847
-0.0453144
-0.0487384
-0.0520719
-0.0484666
-0.029918
0.00548688
0.0493632
0.0868813
0.107222
0.110903
0.107993
0.107993
0.110903
0.107222
0.0868807
0.049362
0.00548498
-0.0299202
-0.0484683
-0.0520724
-0.0487377
-0.0453132
-0.0434838
-0.0415168
-0.0365698
-0.0283516
-0.0184091
-0.0106829
-0.00666569
-0.00555432
-0.00447557
-0.00280185
-0.00185916
-0.00185893
-0.00202709
-0.000948984
2.48748e-06
-0.000166993
-0.00100308
-0.00103788
5.24865e-05
0.000176339
-0.000916926
-0.00119295
-0.000272644
-2.03511e-05
-0.000712678
-0.000930675
-0.00020255
8.73364e-05
-0.000456307
-0.000356399
-6.90315e-05
-8.4945e-06
3.35455e-05
-0.000428346
-9.59829e-05
0.000328846
-0.000479495
-0.000238836
0.000274972
0.000410987
0.000141308
-0.000211105
0.00013674
-0.000428086
-0.000606925
-2.92345e-05
4.55425e-05
-0.000111616
-0.000358178
-0.000222359
-3.48351e-05
-0.000631768
-0.000873571
-0.000227028
4.41582e-05
-0.000924904
-0.00168273
-0.000727472
0.000128442
-0.000960846
-0.00193674
-0.000852367
0.000158863
-0.000268813
-0.0013195
-0.00181468
-0.00169788
-0.00194746
-0.00242497
-0.00394898
-0.00641718
-0.0100511
-0.0152397
-0.0224875
-0.0318386
-0.0414827
-0.0500196
-0.0561513
-0.060433
-0.0627646
-0.0617324
-0.0524722
-0.0296745
0.00800144
0.053742
0.0952738
0.122403
0.133765
0.135963
0.135963
0.133764
0.122402
0.0952728
0.0537406
0.00799943
-0.0296768
-0.0524742
-0.0617333
-0.0627643
-0.060432
-0.0561503
-0.0500191
-0.0414827
-0.0318389
-0.0224878
-0.0152397
-0.0100508
-0.00641687
-0.00394885
-0.0024249
-0.00194736
-0.00169773
-0.00181477
-0.00131952
-0.000268375
0.000159431
-0.000852405
-0.00193733
-0.000960852
0.000128996
-0.000727527
-0.00168339
-0.000925084
4.4632e-05
-0.000226794
-0.000873945
-0.000631951
-3.45403e-05
-0.000222324
-0.000358325
-0.000111538
4.57767e-05
-2.9076e-05
-0.000607267
-0.000428354
0.000136924
-0.00021116
0.000141448
0.00041129
8.29737e-05
6.77245e-05
-8.44926e-05
-9.81568e-05
3.3503e-05
-2.92345e-05
-0.000313724
-0.000441803
-0.000638657
-0.000544856
-7.93293e-05
-0.000378982
-0.000771737
-0.000371834
-2.11277e-06
-0.000315272
-0.00101405
-0.0008496
1.90258e-05
-0.000330581
-0.00195749
-0.00232104
-0.00127848
-0.00122958
-0.00210798
-0.00259956
-0.00229435
-0.00237793
-0.00232462
-0.00174307
-0.00284847
-0.00665142
-0.012445
-0.0179509
-0.0242063
-0.0328559
-0.0444369
-0.0570403
-0.0677989
-0.0745368
-0.0752195
-0.0686671
-0.0527944
-0.0260693
0.0118663
0.0566535
0.100354
0.134488
0.155356
0.164329
0.164329
0.155355
0.134487
0.100353
0.056652
0.0118643
-0.0260716
-0.0527965
-0.0686684
-0.0752197
-0.0745362
-0.0677979
-0.0570393
-0.044436
-0.0328553
-0.0242061
-0.0179508
-0.0124447
-0.00665068
-0.0028477
-0.00174261
-0.00232452
-0.00237793
-0.00229452
-0.00260002
-0.00210819
-0.00122941
-0.00127845
-0.00232165
-0.00195795
-0.00033014
1.96109e-05
-0.000849712
-0.00101438
-0.000315116
-1.69767e-06
-0.000371798
-0.000772059
-0.00037896
-7.90446e-05
-0.000544927
-0.000638901
-0.000441949
-0.00031371
-2.90756e-05
3.35441e-05
-9.82175e-05
-8.44732e-05
6.78236e-05
8.30337e-05
-0.000325399
-0.000149781
-4.54186e-05
-0.000505027
-8.62972e-06
4.55425e-05
-0.000441803
-8.68674e-05
-0.000212231
-0.000465077
-0.000303514
-0.000767368
-0.000806698
-0.000361135
-0.000644581
-0.001294
-0.00128858
-0.000463308
-0.000201208
-0.00112927
-0.00170368
-0.000672116
-9.03282e-06
-0.00101556
-0.00211802
-0.00223606
-0.00222292
-0.00363069
-0.00427673
-0.00396421
-0.00566057
-0.0111585
-0.0184335
-0.0237461
-0.0288488
-0.0368883
-0.0500891
-0.0657526
-0.0798046
-0.0874342
-0.0851
-0.071601
-0.048153
-0.0171908
0.0201096
0.0624489
0.107039
0.148084
0.179333
0.196005
0.196004
0.179331
0.148082
0.107038
0.0624475
0.0201081
-0.0171925
-0.0481549
-0.0716025
-0.0851007
-0.0874341
-0.0798038
-0.0657515
-0.0500878
-0.0368874
-0.0288487
-0.0237466
-0.0184342
-0.0111585
-0.0056601
-0.00396395
-0.00427691
-0.00363089
-0.00222283
-0.00223618
-0.00211817
-0.00101526
-8.35304e-06
-0.0006719
-0.00170417
-0.00112941
-0.00020068
-0.000463019
-0.00128897
-0.00129441
-0.000644458
-0.000360834
-0.000806854
-0.000767604
-0.000303401
-0.000465037
-0.000212167
-8.68447e-05
-0.000441945
4.57793e-05
-8.49356e-06
-0.000505275
-4.53765e-05
-0.000149855
-0.000325624
-0.000480622
-0.000220393
0.000121375
-0.000434937
-6.91686e-05
-0.000111616
-0.000638657
-0.000212231
-0.000184566
-0.000490892
-0.000480096
-0.000627382
-0.000515368
-0.000392912
-0.000870662
-0.00140026
-0.00101572
-0.000474098
-0.00120276
-0.00230647
-0.00191543
-0.000489439
-0.000610544
-0.00200992
-0.00259444
-0.00173485
-0.00139861
-0.00297145
-0.00388672
-0.00417981
-0.0064326
-0.0129257
-0.0208384
-0.0266905
-0.032242
-0.0415254
-0.0571943
-0.0759896
-0.0928823
-0.100985
-0.0956904
-0.0756727
-0.0453872
-0.0108269
0.0249587
0.06377
0.107897
0.154795
0.195813
0.220016
0.220015
0.195811
0.154793
0.107895
0.0637684
0.0249574
-0.0108285
-0.0453889
-0.0756746
-0.095692
-0.100986
-0.0928821
-0.0759886
-0.0571927
-0.041524
-0.0322414
-0.0266909
-0.0208392
-0.0129258
-0.006432
-0.00417922
-0.00388654
-0.00297142
-0.00139824
-0.00173469
-0.00259475
-0.00201006
-0.000610006
-0.000488851
-0.0019158
-0.00230719
-0.00120272
-0.00047358
-0.00101573
-0.00140071
-0.000870744
-0.000392609
-0.000515246
-0.000627502
-0.000480149
-0.000490888
-0.000184405
-0.000212168
-0.0006389
-0.000111541
-6.90334e-05
-0.000435048
0.00012151
-0.00022054
-0.000480936
-0.00021862
0.000153379
0.000417593
-0.000233668
-0.000356244
-0.000358178
-0.000544856
-0.000465077
-0.000490892
-0.000567918
-0.000606576
-0.000583888
-0.000557167
-0.000683986
-0.000903812
-0.000948003
-0.000494097
-0.000560057
-0.0016251
-0.0023056
-0.00167639
-0.00106919
-0.00201916
-0.00340056
-0.00374107
-0.00249918
-0.00181135
-0.00294657
-0.00443859
-0.00576495
-0.0080647
-0.0138691
-0.0212003
-0.0280257
-0.0350873
-0.0463147
-0.0638158
-0.0845316
-0.102588
-0.109963
-0.101248
-0.0753447
-0.0391962
-0.00167135
0.0324993
0.0675779
0.110253
0.161237
0.210113
0.240638
0.240638
0.210111
0.161235
0.110251
0.0675765
0.0324982
-0.00167242
-0.0391978
-0.0753468
-0.10125
-0.109964
-0.102589
-0.0845306
-0.063814
-0.0463127
-0.035086
-0.0280254
-0.0212005
-0.0138693
-0.00806428
-0.00576439
-0.0044382
-0.00294634
-0.00181102
-0.00249909
-0.00374164
-0.00340123
-0.00201916
-0.00106862
-0.00167634
-0.00230624
-0.00162537
-0.00055955
-0.000493661
-0.000948128
-0.000903982
-0.000683895
-0.000557039
-0.000583903
-0.000606608
-0.000567922
-0.00049089
-0.000465038
-0.000544927
-0.000358329
-0.000356399
-0.000233657
0.000417948
0.000153525
-0.000218725
5.25605e-05
0.000119366
-0.000118148
-0.000456159
-0.000456106
-0.000222359
-7.93293e-05
-0.000303514
-0.000480096
-0.000606576
-0.000887813
-0.000761935
-0.00076254
-0.00120785
-0.0012962
-0.000945757
-0.000811613
-0.00134288
-0.00174559
-0.00134626
-0.0007024
-0.000979301
-0.00197134
-0.00286174
-0.00346686
-0.00293886
-0.00255486
-0.0038676
-0.00708633
-0.0102122
-0.0124808
-0.0166189
-0.0233001
-0.0319473
-0.0415033
-0.0546047
-0.0726221
-0.0933861
-0.110324
-0.115193
-0.102093
-0.070818
-0.0296668
0.0104503
0.0437665
0.075825
0.11659
0.16947
0.223322
0.258128
0.258127
0.223321
0.169469
0.116588
0.0758239
0.0437659
0.0104498
-0.0296678
-0.07082
-0.102095
-0.115195
-0.110325
-0.0933855
-0.0726204
-0.0546029
-0.0415019
-0.0319465
-0.0233
-0.0166193
-0.0124812
-0.0102125
-0.00708632
-0.00386729
-0.00255449
-0.00293867
-0.00346712
-0.00286216
-0.00197141
-0.00097869
-0.000701734
-0.00134635
-0.00174606
-0.00134289
-0.000811208
-0.000945672
-0.00129651
-0.00120799
-0.000762393
-0.00076193
-0.000887938
-0.000606608
-0.00048015
-0.000303399
-7.90423e-05
-0.000222325
-0.000456306
-0.000456345
-0.000118149
0.000119558
5.26771e-05
-2.04901e-05
-0.00042504
-0.000707856
-0.000238694
8.69856e-05
-3.48351e-05
-0.000378982
-0.000767368
-0.000627382
-0.000583888
-0.000761935
-0.000464246
-0.000708535
-0.00141806
-0.00125057
-0.000801958
-0.00138831
-0.00236504
-0.00213115
-0.00117969
-0.0012159
-0.00235663
-0.00270351
-0.0024145
-0.00271611
-0.00260753
-0.00215837
-0.00334583
-0.0077724
-0.0121
-0.0140396
-0.016706
-0.023984
-0.0360175
-0.0496315
-0.0652049
-0.0836855
-0.10379
-0.118616
-0.12015
-0.102703
-0.067406
-0.0229406
0.0188915
0.0519803
0.0818672
0.12025
0.172355
0.227481
0.263874
0.263874
0.227481
0.172354
0.120249
0.0818663
0.0519799
0.0188912
-0.0229416
-0.0674082
-0.102706
-0.120153
-0.118618
-0.10379
-0.0836844
-0.0652034
-0.0496301
-0.0360163
-0.0239831
-0.0167057
-0.0140402
-0.0121007
-0.00777251
-0.00334518
-0.00215763
-0.00260707
-0.002716
-0.00241472
-0.00270391
-0.00235663
-0.00121524
-0.00117932
-0.00213165
-0.00236562
-0.00138813
-0.000801528
-0.00125073
-0.00141842
-0.000708383
-0.000463955
-0.000761927
-0.000583902
-0.000627503
-0.000767602
-0.000378959
-3.45412e-05
8.73376e-05
-0.000238707
-0.000708296
-0.000425257
-2.04466e-05
-5.17376e-05
-0.000271905
-0.00013886
0.000178063
-0.000202718
-0.000631768
-0.000771737
-0.000806698
-0.000515368
-0.000557167
-0.00076254
-0.000708535
-0.00111157
-0.00135115
-0.000771566
-0.000601263
-0.0016912
-0.00252766
-0.00177672
-0.00101596
-0.00214712
-0.00399925
-0.00379196
-0.0025865
-0.0027219
-0.00349079
-0.00360294
-0.0046508
-0.00899325
-0.0132212
-0.014569
-0.0163652
-0.0247077
-0.0399931
-0.057325
-0.0747528
-0.0929045
-0.110994
-0.122257
-0.119236
-0.0973971
-0.0592606
-0.0132349
0.0294147
0.0627418
0.0913179
0.12677
0.175248
0.227558
0.262541
0.262541
0.227558
0.175248
0.126769
0.0913175
0.0627417
0.0294147
-0.0132356
-0.0592627
-0.0974004
-0.119239
-0.122259
-0.110994
-0.0929037
-0.0747515
-0.0573236
-0.0399915
-0.0247059
-0.016364
-0.014569
-0.013222
-0.00899375
-0.00465043
-0.0036023
-0.00349027
-0.00272152
-0.00258654
-0.0037927
-0.00400001
-0.00214684
-0.00101514
-0.00177673
-0.00252843
-0.00169138
-0.000600598
-0.000771172
-0.00135148
-0.00111184
-0.000708383
-0.000762391
-0.000557039
-0.000515248
-0.000806855
-0.000772061
-0.000631951
-0.000202547
0.000178383
-0.000138838
-0.000272049
-5.17802e-05
0.000172703
0.000279365
0.000266679
-0.000124693
-0.000930248
-0.000873571
-0.000371834
-0.000361135
-0.000392912
-0.000683986
-0.00120785
-0.00141806
-0.00135115
-0.00107074
-0.00092929
-0.00140113
-0.0021441
-0.00196597
-0.000984162
-0.000891359
-0.00251871
-0.0042063
-0.00354737
-0.00198927
-0.00247435
-0.0049307
-0.00659387
-0.0076298
-0.0108128
-0.0145333
-0.0165202
-0.0191852
-0.0290226
-0.0467035
-0.0668184
-0.0854463
-0.102405
-0.116877
-0.122732
-0.113714
-0.0871648
-0.0469226
-0.000559731
0.0423625
0.076491
0.10471
0.136902
0.17926
0.224943
0.255672
0.255672
0.224944
0.179261
0.136903
0.10471
0.0764914
0.0423627
-0.000560148
-0.0469244
-0.0871679
-0.113717
-0.122735
-0.116878
-0.102405
-0.0854454
-0.0668172
-0.046702
-0.0290207
-0.0191835
-0.0165197
-0.014534
-0.0108138
-0.00763034
-0.00659398
-0.00493033
-0.00247353
-0.0019887
-0.0035478
-0.00420731
-0.00251888
-0.00089037
-0.000983348
-0.00196631
-0.00214482
-0.00140107
-0.000928685
-0.00107052
-0.00135148
-0.00141842
-0.00120799
-0.000683895
-0.000392608
-0.000360832
-0.000371799
-0.000873947
-0.000930675
-0.000124641
0.000267049
0.000279631
0.000172781
0.000150914
-2.40447e-05
-0.000362543
-0.000541977
-0.000712454
-0.000227028
-2.11277e-06
-0.000644581
-0.000870662
-0.000903812
-0.0012962
-0.00125057
-0.000771566
-0.00092929
-0.00190148
-0.00258466
-0.00221016
-0.00138007
-0.00140285
-0.00227078
-0.00331807
-0.0038252
-0.00277942
-0.00129674
-0.00211513
-0.00583644
-0.00860251
-0.00884959
-0.00996485
-0.0136181
-0.0181968
-0.0237539
-0.0354414
-0.0548281
-0.0774442
-0.0975751
-0.113318
-0.123205
-0.122517
-0.106906
-0.0760287
-0.0346984
0.0107382
0.0531757
0.0881753
0.116514
0.145056
0.179196
0.215036
0.239072
0.239072
0.215038
0.179198
0.145057
0.116515
0.0881761
0.0531761
0.0107378
-0.0347
-0.0760317
-0.10691
-0.122521
-0.123207
-0.113319
-0.0975748
-0.0774433
-0.0548267
-0.0354397
-0.023752
-0.0181955
-0.0136177
-0.00996528
-0.00885053
-0.00860337
-0.00583643
-0.00211401
-0.00129547
-0.00277914
-0.00382602
-0.00331892
-0.0022706
-0.00140185
-0.00137949
-0.00221074
-0.00258553
-0.00190155
-0.000928685
-0.000771174
-0.00125073
-0.00129651
-0.000903984
-0.000870742
-0.000644454
-1.69885e-06
-0.000226796
-0.000712678
-0.000542261
-0.000362598
-2.39425e-05
0.000150985
-0.000169208
-0.000825448
-0.000910928
-0.000217858
-2.06763e-05
4.41582e-05
-0.000315272
-0.001294
-0.00140026
-0.000948003
-0.000945757
-0.000801958
-0.000601263
-0.00140113
-0.00258466
-0.00243371
-0.00124982
-0.00121507
-0.00296671
-0.00421782
-0.00383864
-0.00313038
-0.00265806
-0.00228952
-0.00349029
-0.00739013
-0.0100816
-0.00888909
-0.00798821
-0.0122665
-0.0204296
-0.029382
-0.0421352
-0.0620601
-0.0864937
-0.108034
-0.121997
-0.126119
-0.117908
-0.0956093
-0.0611781
-0.0198359
0.0234695
0.0644544
0.0997519
0.128052
0.152393
0.176743
0.200358
0.215883
0.215884
0.200361
0.176746
0.152395
0.128054
0.0997532
0.0644551
0.0234693
-0.0198372
-0.0611807
-0.0956131
-0.117912
-0.126123
-0.121999
-0.108034
-0.0864929
-0.0620586
-0.0421336
-0.0293804
-0.0204279
-0.0122649
-0.00798734
-0.00888967
-0.0100831
-0.0073909
-0.00348967
-0.00228818
-0.00265707
-0.00313044
-0.0038397
-0.0042189
-0.0029666
-0.00121392
-0.00124923
-0.00243439
-0.00258553
-0.00140107
-0.000600597
-0.000801523
-0.000945671
-0.000948133
-0.00140071
-0.00129441
-0.000315117
4.46358e-05
-2.03463e-05
-0.000217861
-0.000911284
-0.000825817
-0.000169324
0.000100208
-0.00028877
-0.000294631
0.000294409
-0.000272844
-0.000924904
-0.00101405
-0.00128858
-0.00101572
-0.000494097
-0.000811613
-0.00138831
-0.0016912
-0.0021441
-0.00221016
-0.00124982
-0.000594817
-0.00189724
-0.00424178
-0.00463587
-0.00284908
-0.00197183
-0.00330797
-0.00487727
-0.00619199
-0.0089908
-0.0108378
-0.00903245
-0.00776188
-0.0135674
-0.025302
-0.0371433
-0.0502496
-0.0698565
-0.0952153
-0.117248
-0.128047
-0.124931
-0.108225
-0.0793273
-0.0419475
-0.00128376
0.0392422
0.0779743
0.112819
0.14063
0.16043
0.174259
0.184441
0.190463
0.190464
0.184444
0.174263
0.160433
0.140633
0.112821
0.0779755
0.0392424
-0.00128462
-0.0419494
-0.0793304
-0.108229
-0.124935
-0.128051
-0.11725
-0.0952148
-0.0698549
-0.0502481
-0.0371422
-0.0253007
-0.0135653
-0.00775992
-0.00903217
-0.0108392
-0.0089924
-0.00619259
-0.00487678
-0.00330675
-0.0019707
-0.00284918
-0.00463727
-0.00424286
-0.00189667
-0.000593391
-0.00124923
-0.00221074
-0.00214482
-0.00169138
-0.00138813
-0.000811207
-0.000493664
-0.00101573
-0.00128897
-0.00101439
-0.000925081
-0.000272641
0.000294802
-0.000294624
-0.000288883
0.000100234
0.000595208
0.000681681
0.000269304
1.64965e-05
-0.00119254
-0.00168273
-0.0008496
-0.000463308
-0.000474098
-0.000560057
-0.00134288
-0.00236504
-0.00252766
-0.00196597
-0.00138007
-0.00121507
-0.00189724
-0.00333823
-0.00435246
-0.00336059
-0.00131051
-0.00140891
-0.00468941
-0.00765253
-0.0080375
-0.00857541
-0.00963246
-0.00913128
-0.00955827
-0.0172008
-0.0315478
-0.0458032
-0.0596815
-0.0791329
-0.104729
-0.125966
-0.132368
-0.12124
-0.0960668
-0.0613343
-0.0219297
0.0173711
0.0545684
0.0901816
0.123545
0.150131
0.165241
0.168629
0.165337
0.161699
0.1617
0.16534
0.168633
0.165245
0.150134
0.123548
0.0901833
0.054569
0.0173707
-0.021931
-0.0613368
-0.0960706
-0.121245
-0.132372
-0.125969
-0.104729
-0.0791314
-0.0596798
-0.0458024
-0.0315471
-0.017199
-0.00955587
-0.00912982
-0.0096327
-0.00857678
-0.00803906
-0.00765338
-0.00468878
-0.00140709
-0.00130913
-0.00336093
-0.00435389
-0.00333902
-0.00189667
-0.00121392
-0.00137949
-0.00196632
-0.00252843
-0.00236562
-0.00134289
-0.000559549
-0.000473573
-0.000463018
-0.000849718
-0.00168339
-0.00119296
1.67208e-05
0.000269601
0.000682092
0.000595528
0.000216692
-0.00019557
-0.000775983
-0.000691324
-0.000916596
-0.000727472
1.90258e-05
-0.000201208
-0.00120276
-0.0016251
-0.00174559
-0.00213115
-0.00177672
-0.000984162
-0.00140285
-0.00296671
-0.00424178
-0.00435246
-0.00351208
-0.00224138
-0.00145403
-0.00268442
-0.00651306
-0.0091603
-0.00761939
-0.00583133
-0.00717236
-0.00995871
-0.0133384
-0.0221518
-0.0377378
-0.054377
-0.070132
-0.0897214
-0.114156
-0.132608
-0.133414
-0.114199
-0.0813114
-0.0418218
-0.00138755
0.0359286
0.0692453
0.100852
0.131523
0.156016
0.166447
0.160185
0.144375
0.13167
0.131671
0.144377
0.160189
0.166452
0.15602
0.131527
0.100854
0.0692464
0.0359287
-0.0013883
-0.0418235
-0.0813147
-0.114204
-0.13342
-0.132613
-0.114158
-0.0897209
-0.0701305
-0.054376
-0.0377372
-0.0221506
-0.0133364
-0.0099565
-0.00717082
-0.00583116
-0.00762072
-0.00916216
-0.00651368
-0.0026832
-0.0014521
-0.00224032
-0.00351259
-0.0043539
-0.00424286
-0.0029666
-0.00140185
-0.00098335
-0.00177673
-0.00213165
-0.00174606
-0.00162538
-0.00120271
-0.00020068
1.96103e-05
-0.000727522
-0.000916929
-0.000691485
-0.000776195
-0.000195515
0.000216898
-0.000385852
-0.00123339
-0.00147371
-0.00063658
0.00017594
0.000128442
-0.000330581
-0.00112927
-0.00230647
-0.0023056
-0.00134626
-0.00117969
-0.00101596
-0.000891359
-0.00227078
-0.00421782
-0.00463587
-0.00336059
-0.00224138
-0.00270621
-0.00421673
-0.00598429
-0.0086485
-0.00969758
-0.00656047
-0.00374486
-0.00648247
-0.0129979
-0.0187268
-0.0271847
-0.042676
-0.0617908
-0.0801802
-0.0993463
-0.120358
-0.133739
-0.128274
-0.101837
-0.0627138
-0.0198965
0.0203987
0.0548617
0.0835267
0.110094
0.136777
0.158236
0.164117
0.149474
0.122847
0.102242
0.102243
0.122849
0.149477
0.164121
0.15824
0.136781
0.110097
0.0835286
0.0548625
0.0203986
-0.0198974
-0.0627161
-0.101842
-0.12828
-0.133745
-0.120362
-0.0993472
-0.0801792
-0.0617893
-0.0426748
-0.0271838
-0.0187258
-0.012996
-0.00647993
-0.00374296
-0.00656064
-0.00969959
-0.00865045
-0.00598479
-0.00421578
-0.00270459
-0.00224032
-0.00336093
-0.00463727
-0.0042189
-0.0022706
-0.000890369
-0.00101513
-0.00117932
-0.00134635
-0.00230624
-0.00230719
-0.00112942
-0.000330137
0.000129006
0.000176338
-0.000636604
-0.00147429
-0.00123387
-0.000385917
-0.000159717
-7.04335e-05
-6.80066e-06
-6.42313e-05
5.20702e-05
-0.000960846
-0.00195749
-0.00170368
-0.00191543
-0.00167639
-0.0007024
-0.0012159
-0.00214712
-0.00251871
-0.00331807
-0.00383864
-0.00284908
-0.00131051
-0.00145403
-0.00421673
-0.00743004
-0.0085581
-0.00905925
-0.00877807
-0.00609463
-0.00445503
-0.0091754
-0.0184896
-0.0254561
-0.0330058
-0.0482675
-0.0701774
-0.0911261
-0.108472
-0.123517
-0.129878
-0.1181
-0.0857817
-0.0420096
0.00297431
0.0422178
0.0731602
0.0966104
0.117524
0.139402
0.157301
0.159113
0.137841
0.102702
0.0758192
0.0758196
0.102704
0.137843
0.159116
0.157305
0.139406
0.117528
0.0966131
0.0731619
0.0422187
0.00297416
-0.0420111
-0.085785
-0.118105
-0.129884
-0.123522
-0.108475
-0.0911265
-0.070176
-0.0482655
-0.0330045
-0.0254558
-0.018489
-0.00917324
-0.00445226
-0.00609324
-0.0087789
-0.00906129
-0.00855999
-0.00743079
-0.00421578
-0.0014521
-0.00130913
-0.00284917
-0.0038397
-0.00331892
-0.00251888
-0.00214684
-0.00121524
-0.000701738
-0.00167634
-0.0019158
-0.00170418
-0.00195795
-0.000960849
5.24808e-05
-6.38981e-05
-6.73392e-06
-7.04737e-05
-0.000159722
8.6393e-05
0.00104031
0.000919054
-0.000633678
-0.00103767
-0.00193674
-0.00232104
-0.000672116
-0.000489439
-0.00106919
-0.000979301
-0.00235663
-0.00399925
-0.0042063
-0.0038252
-0.00313038
-0.00197183
-0.00140891
-0.00268442
-0.00598429
-0.0085581
-0.00757525
-0.0058724
-0.00575292
-0.00614778
-0.00756195
-0.0141326
-0.0250978
-0.0333376
-0.0412586
-0.0571782
-0.081567
-0.103627
-0.117097
-0.123892
-0.121983
-0.104208
-0.0673919
-0.0202837
0.0259843
0.0634635
0.0903064
0.108164
0.123225
0.139967
0.154147
0.15254
0.126562
0.085464
0.0541481
0.0541483
0.0854648
0.126564
0.152542
0.154151
0.139971
0.123229
0.108168
0.0903092
0.0634654
0.025985
-0.0202843
-0.0673942
-0.104212
-0.121988
-0.123898
-0.117102
-0.103629
-0.081567
-0.0571761
-0.0412567
-0.0333373
-0.0250981
-0.0141317
-0.00755955
-0.00614524
-0.00575156
-0.00587269
-0.0075769
-0.00855998
-0.00598478
-0.0026832
-0.00140709
-0.0019707
-0.00313043
-0.00382602
-0.00420732
-0.00400002
-0.00235663
-0.000978694
-0.00106861
-0.000488847
-0.000671906
-0.00232164
-0.00193733
-0.00103789
-0.000633634
0.000919581
0.0010408
8.64938e-05
-0.00063984
-0.00022194
-0.000409013
-0.00188484
-0.00100288
-0.000852367
-0.00127848
-9.03282e-06
-0.000610544
-0.00201916
-0.00197134
-0.00270351
-0.00379196
-0.00354737
-0.00277942
-0.00265806
-0.00330797
-0.00468941
-0.00651306
-0.0086485
-0.00905925
-0.0058724
-0.00292846
-0.0039991
-0.0078315
-0.0113079
-0.0176167
-0.0285307
-0.0385717
-0.0486275
-0.06582
-0.0914454
-0.112881
-0.121603
-0.120136
-0.110889
-0.0888818
-0.0498888
-0.00147982
0.0444557
0.0788733
0.100596
0.112403
0.121608
0.133263
0.143789
0.139441
0.110602
0.0660881
0.0322215
0.0322215
0.0660883
0.110602
0.139443
0.143791
0.133266
0.121612
0.112407
0.1006
0.0788761
0.0444572
-0.00147984
-0.0498903
-0.0888848
-0.110893
-0.120141
-0.121609
-0.112886
-0.0914476
-0.0658188
-0.0486251
-0.0385702
-0.0285304
-0.0176163
-0.0113066
-0.00782914
-0.0039963
-0.00292665
-0.00587269
-0.00906128
-0.00865044
-0.00651369
-0.00468878
-0.00330675
-0.00265708
-0.00277915
-0.0035478
-0.0037927
-0.00270391
-0.00197141
-0.00201915
-0.000610004
-8.35507e-06
-0.00127844
-0.000852406
-0.00100309
-0.00188534
-0.000408957
-0.00022184
-0.000639993
-0.00122388
-0.00116421
-0.000978687
-0.00191362
-0.000167294
0.000158863
-0.00122958
-0.00101556
-0.00200992
-0.00340056
-0.00286174
-0.0024145
-0.0025865
-0.00198927
-0.00129674
-0.00228952
-0.00487727
-0.00765253
-0.0091603
-0.00969758
-0.00877807
-0.00575292
-0.0039991
-0.00713051
-0.0134597
-0.0172405
-0.0217629
-0.0319899
-0.0445612
-0.0572927
-0.0743264
-0.0979486
-0.11601
-0.119246
-0.110097
-0.0945702
-0.0695479
-0.0300176
0.0180421
0.0621204
0.0922487
0.107994
0.113592
0.117306
0.12426
0.131307
0.124743
0.0945654
0.0489052
0.0142275
0.0142274
0.048905
0.0945656
0.124744
0.131309
0.124262
0.11731
0.113596
0.107998
0.0922524
0.062123
0.018043
-0.0300181
-0.0695497
-0.0945731
-0.110102
-0.119252
-0.116017
-0.0979529
-0.0743273
-0.0572911
-0.0445589
-0.0319882
-0.0217621
-0.0172403
-0.0134589
-0.00712814
-0.00399632
-0.00575156
-0.0087789
-0.0096996
-0.00916217
-0.00765339
-0.00487678
-0.00228818
-0.00129547
-0.00198869
-0.00258653
-0.00241472
-0.00286217
-0.00340123
-0.00201007
-0.00101527
-0.0012294
0.00015943
-0.000166995
-0.00191409
-0.000978851
-0.00116449
-0.00122428
-0.000925502
-0.000266466
0.000258877
-0.000979208
2.04232e-06
-0.000268813
-0.00210798
-0.00211802
-0.00259444
-0.00374107
-0.00346686
-0.00271611
-0.0027219
-0.00247435
-0.00211513
-0.00349029
-0.00619199
-0.0080375
-0.00761939
-0.00656047
-0.00609463
-0.00614778
-0.0078315
-0.0134597
-0.0215875
-0.0257047
-0.0295882
-0.0403108
-0.055951
-0.0703198
-0.0843383
-0.102122
-0.11435
-0.111935
-0.0960469
-0.0749931
-0.0473976
-0.00826682
0.0381596
0.0790194
0.103961
0.113355
0.113163
0.11224
0.115267
0.11916
0.110804
0.0805031
0.0356387
0.00168573
0.00168548
0.0356382
0.0805028
0.110804
0.119161
0.115268
0.112243
0.113167
0.11336
0.103966
0.0790233
0.0381618
-0.00826621
-0.0473981
-0.0749944
-0.0960497
-0.11194
-0.114356
-0.102128
-0.084342
-0.0703208
-0.0559497
-0.0403086
-0.0295867
-0.0257048
-0.0215881
-0.0134589
-0.00782916
-0.00614524
-0.00609325
-0.00656065
-0.00762072
-0.00803905
-0.00619258
-0.00348966
-0.002114
-0.00247352
-0.00272152
-0.00271601
-0.00346712
-0.00374164
-0.00259476
-0.00211817
-0.00210819
-0.000268383
2.48919e-06
-0.000979326
0.000259099
-0.000266531
-0.000925879
-0.00046629
0.000483836
0.000805018
-0.000935142
-0.000949066
-0.0013195
-0.00259956
-0.00223606
-0.00173485
-0.00249918
-0.00293886
-0.00260753
-0.00349079
-0.0049307
-0.00583644
-0.00739013
-0.0089908
-0.00857541
-0.00583133
-0.00374486
-0.00445503
-0.00756195
-0.0113079
-0.0172405
-0.0257047
-0.0311216
-0.0368694
-0.0499073
-0.0689397
-0.0841746
-0.0941901
-0.105405
-0.112583
-0.10678
-0.0866429
-0.0614767
-0.0319141
0.00597242
0.0496379
0.0863498
0.106055
0.109844
0.10541
0.101637
0.102269
0.10386
0.0944051
0.0651728
0.0228811
-0.00896061
-0.00896091
0.0228804
0.0651722
0.0944048
0.10386
0.10227
0.101638
0.105413
0.109849
0.106061
0.0863544
0.049641
0.00597389
-0.0319138
-0.0614773
-0.0866447
-0.106784
-0.112588
-0.105412
-0.094196
-0.0841788
-0.0689409