/*--------------------------------*- C++ -*----------------------------------*\
  =========                 |
  \\      /  F ield         | OpenFOAM: The Open Source CFD Toolbox
   \\    /   O peration     | Website:  https://openfoam.org
    \\  /    A nd           | Version:  10
     \\/     M anipulation  |
\*---------------------------------------------------------------------------*/
FoamFile
{
    format      ascii;
    class       volScalarField;
    location    "33";
    object      h_0;
}
// * * * * * * * * * * * * * * * * * * * * * * * * * * * * * * * * * * * * * //

dimensions      [0 1 0 0 0 0 0];

internalField   nonuniform List<scalar> 
10000
(
-0.00043407
-0.000477011
-1.05174e-06
5.91051e-05
0.000280368
0.000429873
8.96442e-05
-0.00032677
-0.000480595
-0.000219996
4.66987e-05
-2.95489e-05
-5.30244e-05
0.000174147
0.000142403
-0.000174883
0.000108657
0.000600699
0.000212332
-0.000373832
-0.000130643
0.000102366
-0.000642411
-0.00122344
-0.000922025
-0.000483837
-0.000515143
-0.00046953
8.94446e-05
0.00025969
0.000223941
0.000468905
0.00115467
0.00109627
-0.000451314
-0.00260357
-0.0041727
-0.00425064
-0.003684
-0.00343368
-0.00463085
-0.00663897
-0.00781902
-0.00599281
-0.000818064
0.00586473
0.01093
0.0124723
0.0110998
0.00932387
0.0093239
0.0110999
0.0124723
0.0109299
0.00586454
-0.000818342
-0.00599311
-0.00781922
-0.00663899
-0.0046307
-0.00343344
-0.00368381
-0.00425051
-0.00417259
-0.00260331
-0.000450884
0.0010968
0.00115511
0.000469169
0.000224122
0.000259791
8.94624e-05
-0.000469676
-0.000515318
-0.000484063
-0.000922409
-0.00122385
-0.000642567
0.000102467
-0.000130641
-0.00037389
0.000212538
0.00060102
0.000108687
-0.000174999
0.000142471
0.000174227
-5.30636e-05
-2.95078e-05
4.68115e-05
-0.000220104
-0.000480913
-0.000327001
8.97083e-05
0.00043019
0.000280578
5.91932e-05
-1.01974e-06
-0.000477465
-0.000434488
-0.000477011
-0.000150412
0.000414039
-0.000233583
-0.00023986
0.00015506
5.60454e-05
-0.00015611
-0.000211129
0.000155343
0.000116238
-0.000429693
-0.000263383
0.000288175
-4.05642e-05
-0.000832242
-0.000266491
0.000682548
-0.000227692
-0.00123579
-4.22884e-05
0.00103765
-0.000253356
-0.00116437
-0.000235305
0.00048868
-0.000246125
-0.000892162
-0.000458723
-0.00105724
-0.00216866
-0.00217217
-0.000892918
-0.00142975
-0.00573864
-0.0114817
-0.01534
-0.0151664
-0.0130309
-0.0118269
-0.0143819
-0.0191896
-0.0215015
-0.0154116
0.000172498
0.0199684
0.0351781
0.040288
0.0369517
0.0322055
0.0322056
0.036952
0.0402882
0.0351781
0.019968
0.000171739
-0.0154124
-0.0215021
-0.0191897
-0.0143816
-0.0118264
-0.0130307
-0.0151666
-0.0153404
-0.0114819
-0.00573847
-0.00142931
-0.000892694
-0.00217233
-0.00216887
-0.00105733
-0.000458694
-0.000892223
-0.000245986
0.000488921
-0.000235364
-0.00116463
-0.000253261
0.00103814
-4.23128e-05
-0.00123626
-0.000227648
0.000682955
-0.000266592
-0.000832612
-4.04742e-05
0.000288443
-0.000263521
-0.000429915
0.000116424
0.00015549
-0.00021127
-0.000156186
5.61397e-05
0.000155212
-0.00024005
-0.000233718
0.000414452
-0.000150573
-0.000477465
-1.05174e-06
0.000414039
0.000387648
-0.000390578
-0.000482757
-0.000209992
-0.000108497
-4.60083e-05
0.000138412
0.000413407
-0.000123141
-0.000702735
-0.000126733
0.000270759
-0.000377886
-0.000908387
-0.000270288
0.000262461
-0.000808892
-0.00147576
8.69138e-06
0.000897285
-0.000450197
-0.000977308
0.000290023
0.000810328
-0.0002967
-0.000938217
-0.000599327
-0.00166483
-0.0034986
-0.00365846
-0.00243897
-0.0039412
-0.0104702
-0.0189854
-0.0247185
-0.0252652
-0.0228829
-0.0218217
-0.0254198
-0.0318688
-0.0340856
-0.0238189
0.000710904
0.0316398
0.0559806
0.0652748
0.0616739
0.0553591
0.0553592
0.0616742
0.0652749
0.0559804
0.0316391
0.00070961
-0.0238203
-0.0340866
-0.031869
-0.0254193
-0.0218209
-0.0228826
-0.0252655
-0.0247193
-0.0189859
-0.0104702
-0.00394072
-0.00243871
-0.00365871
-0.00349898
-0.00166492
-0.000599199
-0.000938158
-0.000296447
0.000810803
0.000290262
-0.000977463
-0.000450155
0.000897797
8.76019e-06
-0.00147634
-0.000809123
0.000262748
-0.000270266
-0.000908737
-0.000377953
0.000271129
-0.000126703
-0.000703171
-0.000123144
0.00041376
0.000138564
-4.5961e-05
-0.000108499
-0.000210052
-0.000483089
-0.000390922
0.000387991
0.000414461
-1.01787e-06
5.91051e-05
-0.000233583
-0.000390578
0.000143719
0.000340456
0.000151636
-9.50868e-05
-0.000499292
-0.000433989
-0.000246211
-0.000465005
-0.000235691
0.000176472
-0.000137813
-0.00054752
-0.000208902
0.000297935
7.10731e-06
-0.000687306
-0.000607491
-4.00689e-05
-0.000636105
-0.00189002
-0.00189885
-0.000979268
-0.000971581
-0.00178351
-0.00139915
-0.000544738
-0.00110266
-0.00249785
-0.00248544
-0.00176783
-0.00447272
-0.0122515
-0.0223623
-0.0297595
-0.0324135
-0.0319166
-0.0325007
-0.0370427
-0.0436219
-0.0443632
-0.0302204
0.000846589
0.039854
0.0716307
0.085884
0.0844141
0.0785554
0.0785554
0.0844141
0.0858839
0.0716303
0.0398529
0.000844808
-0.0302224
-0.0443646
-0.0436223
-0.0370419
-0.0324995
-0.0319157
-0.0324134
-0.0297598
-0.0223625
-0.0122509
-0.00447162
-0.00176683
-0.00248505
-0.00249782
-0.00110252
-0.000544553
-0.00139924
-0.00178381
-0.000971692
-0.000979395
-0.00189932
-0.00189052
-0.000636069
-3.9728e-05
-0.000607498
-0.000687463
7.32456e-06
0.000298331
-0.000208896
-0.000547806
-0.000137767
0.000176794
-0.000235697
-0.000465194
-0.000246214
-0.000434101
-0.000499535
-9.51512e-05
0.00015183
0.000340841
0.000143811
-0.00039092
-0.000233716
5.91897e-05
0.000280368
-0.00023986
-0.000482757
0.000340456
-0.00010054
-0.000442252
4.35277e-05
-8.97822e-06
-8.25172e-05
-0.00034984
-0.000445682
9.26712e-05
-0.000208998
-0.000941125
-0.00069802
-1.15707e-05
-0.000296532
-0.00120876
-0.000904114
0.000178633
2.76771e-05
-0.0010567
-0.000990662
-0.000141952
4.07943e-06
-0.000951471
-0.0020119
-0.00182836
-0.00183724
-0.00280048
-0.00445537
-0.00551027
-0.00661471
-0.0106587
-0.0183813
-0.0282568
-0.0363747
-0.0412651
-0.0433157
-0.0453961
-0.0491981
-0.0528674
-0.0493835
-0.0306437
0.00517036
0.0494867
0.0872993
0.107747
0.111408
0.108455
0.108455
0.111408
0.107747
0.0872987
0.0494855
0.00516846
-0.0306459
-0.0493852
-0.052868
-0.0491975
-0.0453948
-0.0433148
-0.0412649
-0.0363751
-0.0282573
-0.0183814
-0.0106583
-0.00661426
-0.00551022
-0.00445562
-0.00280064
-0.0018372
-0.00182835
-0.00201212
-0.000951391
4.52362e-06
-0.000141639
-0.000990851
-0.00105693
2.80816e-05
0.000179037
-0.000904435
-0.00120919
-0.000296345
-1.12359e-05
-0.000698232
-0.00094156
-0.000208837
9.30263e-05
-0.000445874
-0.000349993
-8.23923e-05
-8.8399e-06
4.35789e-05
-0.000442525
-0.000100453
0.000340837
-0.000483089
-0.000240055
0.000280574
0.000429873
0.00015506
-0.000209992
0.000151636
-0.000442252
-0.000629887
-1.72682e-05
4.35613e-05
-0.000122251
-0.000344235
-0.00021699
-4.23702e-05
-0.000638443
-0.00087003
-0.000208006
4.31048e-05
-0.000948015
-0.00167808
-0.000702632
0.000115233
-0.00100131
-0.00194988
-0.000835323
0.000161208
-0.000292512
-0.00132796
-0.00180336
-0.00167362
-0.00192016
-0.00239756
-0.00391548
-0.00637888
-0.00998872
-0.0151541
-0.0223612
-0.0316627
-0.0412543
-0.0497876
-0.0560244
-0.0605527
-0.063241
-0.0625414
-0.0534264
-0.0304728
0.00760646
0.0538263
0.0957154
0.122997
0.134351
0.1365
0.1365
0.13435
0.122997
0.0957144
0.0538249
0.00760445
-0.0304751
-0.0534284
-0.0625424
-0.0632407
-0.0605518
-0.0560234
-0.0497871
-0.0412542
-0.0316629
-0.0223614
-0.0151541
-0.00998845
-0.00637857
-0.00391533
-0.00239748
-0.00192005
-0.00167346
-0.00180345
-0.00132799
-0.000292085
0.00016178
-0.000835351
-0.00195048
-0.00100134
0.000115783
-0.000702669
-0.00167873
-0.00094821
4.35782e-05
-0.000207758
-0.000870401
-0.000638633
-4.20826e-05
-0.000216949
-0.000344371
-0.000122183
4.37958e-05
-1.70981e-05
-0.000630245
-0.000442532
0.000151829
-0.000210045
0.000155212
0.000430191
8.96442e-05
5.60454e-05
-0.000108497
-9.50868e-05
4.35277e-05
-1.72682e-05
-0.000301658
-0.000448931
-0.000643845
-0.000543537
-8.87335e-05
-0.000390786
-0.000774146
-0.000363578
-2.60713e-06
-0.000332893
-0.00102065
-0.000826073
4.20274e-05
-0.000338232
-0.00196346
-0.00229647
-0.00125336
-0.0012465
-0.00214319
-0.00262409
-0.00232384
-0.00240437
-0.00233514
-0.00173426
-0.00285419
-0.00665616
-0.0123891
-0.0178036
-0.0239798
-0.0325997
-0.0441743
-0.0568225
-0.0676936
-0.074654
-0.0756365
-0.069383
-0.053663
-0.0268321
0.0114714
0.0567474
0.100856
0.135189
0.15607
0.164993
0.164992
0.156068
0.135188
0.100854
0.0567459
0.0114695
-0.0268344
-0.053665
-0.0693843
-0.0756367
-0.0746534
-0.0676926
-0.0568214
-0.0441734
-0.0325991
-0.0239796
-0.0178036
-0.0123888
-0.00665543
-0.00285343
-0.0017338
-0.00233506
-0.00240437
-0.00232402
-0.00262454
-0.00214342
-0.00124633
-0.00125332
-0.00229706
-0.00196393
-0.000337797
4.26251e-05
-0.00082617
-0.001021
-0.000332752
-2.19093e-06
-0.000363532
-0.000774468
-0.000390772
-8.84542e-05
-0.000543604
-0.000644091
-0.000449085
-0.000301638
-1.70974e-05
4.35775e-05
-9.51478e-05
-0.000108496
5.61375e-05
8.97102e-05
-0.00032677
-0.00015611
-4.60083e-05
-0.000499292
-8.97822e-06
4.35613e-05
-0.000448931
-9.06236e-05
-0.000205597
-0.000464384
-0.00030215
-0.000763364
-0.000802229
-0.000355943
-0.000658189
-0.00130967
-0.00128161
-0.000456975
-0.000223666
-0.00115969
-0.00170417
-0.000650447
-2.07084e-06
-0.00102971
-0.0021055
-0.0022047
-0.00220714
-0.00361611
-0.00423897
-0.00391504
-0.00566546
-0.0111823
-0.0183911
-0.0235872
-0.0286229
-0.0366801
-0.0499396
-0.0656991
-0.0798772
-0.0876989
-0.0855929
-0.072332
-0.0490224
-0.0180001
0.0196175
0.062431
0.107465
0.148756
0.180046
0.196677
0.196676
0.180045
0.148754
0.107463
0.0624295
0.019616
-0.0180019
-0.0490242
-0.0723335
-0.0855936
-0.0876988
-0.0798765
-0.0656979
-0.0499384
-0.0366792
-0.0286227
-0.0235877
-0.0183918
-0.0111823
-0.005665
-0.00391476
-0.00423914
-0.0036163
-0.00220705
-0.00220481
-0.00210565
-0.00102943
-1.38779e-06
-0.000650217
-0.00170466
-0.00115985
-0.00022315
-0.000456676
-0.00128199
-0.00131009
-0.000658074
-0.000355636
-0.00080238
-0.000763597
-0.000302039
-0.000464345
-0.000205526
-9.06039e-05
-0.000449082
4.37984e-05
-8.83907e-06
-0.000499534
-4.59657e-05
-0.00015619
-0.000326999
-0.000480595
-0.000211129
0.000138412
-0.000433989
-8.25172e-05
-0.000122251
-0.000643845
-0.000205597
-0.000179521
-0.000496563
-0.000480229
-0.000627144
-0.000514121
-0.000391528
-0.000879116
-0.00139606
-0.000995304
-0.000474255
-0.00123223
-0.00232157
-0.00190163
-0.000483981
-0.000640749
-0.00204683
-0.00258921
-0.00171724
-0.00139876
-0.00297327
-0.00385057
-0.00412398
-0.00641655
-0.0129062
-0.0207306
-0.026445
-0.0319413
-0.0412687
-0.0570456
-0.0759725
-0.0930106
-0.101278
-0.09615
-0.0763048
-0.0461402
-0.0115681
0.0244581
0.0636898
0.108258
0.155431
0.196521
0.220697
0.220697
0.19652
0.155429
0.108256
0.0636883
0.0244568
-0.0115696
-0.046142
-0.0763067
-0.0961516
-0.101279
-0.0930104
-0.0759715
-0.0570441
-0.0412672
-0.0319407
-0.0264453
-0.0207314
-0.0129064
-0.00641597
-0.00412338
-0.00385038
-0.00297323
-0.00139839
-0.00171707
-0.00258952
-0.00204699
-0.000640224
-0.000483385
-0.00190199
-0.00232231
-0.0012322
-0.000473736
-0.000995303
-0.0013965
-0.000879206
-0.000391225
-0.000513996
-0.000627262
-0.000480284
-0.000496563
-0.000179355
-0.000205526
-0.00064409
-0.000122186
-8.23943e-05
-0.000434099
0.000138562
-0.000211269
-0.00048091
-0.000219996
0.000155343
0.000413407
-0.000246211
-0.00034984
-0.000344235
-0.000543537
-0.000464384
-0.000496563
-0.000577286
-0.000608564
-0.000587406
-0.000560034
-0.000689092
-0.000910452
-0.00094176
-0.000483017
-0.000564881
-0.00163481
-0.00228804
-0.00164641
-0.00106399
-0.00204999
-0.0034317
-0.00374328
-0.00249845
-0.00183027
-0.00298529
-0.00444984
-0.00575029
-0.00804781
-0.013825
-0.0210662
-0.0277629
-0.0347771
-0.0460521
-0.0636843
-0.0845475
-0.102759
-0.110262
-0.101649
-0.0758367
-0.0397706
-0.00225706
0.0320767
0.0675011
0.110584
0.161858
0.210841
0.241367
0.241366
0.21084
0.161856
0.110582
0.0674997
0.0320756
-0.00225812
-0.0397721
-0.0758388
-0.101651
-0.110263
-0.102759
-0.0845465
-0.0636825
-0.0460501
-0.0347758
-0.0277625
-0.0210664
-0.0138252
-0.00804741
-0.00574974
-0.00444945
-0.00298506
-0.00182995
-0.00249836
-0.00374385
-0.00343239
-0.00205002
-0.00106342
-0.00164633
-0.00228868
-0.0016351
-0.000564381
-0.000482571
-0.000941879
-0.000910628
-0.000689005
-0.000559904
-0.00058742
-0.000608597
-0.000577295
-0.000496565
-0.000464346
-0.000543604
-0.000344374
-0.000349993
-0.00024621
0.000413759
0.000155491
-0.000220102
4.66987e-05
0.000116238
-0.000123141
-0.000465005
-0.000445682
-0.00021699
-8.87335e-05
-0.00030215
-0.000480229
-0.000608564
-0.000880069
-0.000757381
-0.000766648
-0.00121593
-0.00129846
-0.000945339
-0.000824059
-0.00136576
-0.001754
-0.00133562
-0.000697901
-0.000985167
-0.00198031
-0.00285619
-0.00344093
-0.00289825
-0.00252613
-0.0038826
-0.00710432
-0.0101982
-0.012425
-0.0165431
-0.0231811
-0.031754
-0.0412767
-0.0544289
-0.0725915
-0.0935223
-0.110621
-0.115586
-0.102528
-0.0712601
-0.0301349
0.00997375
0.0433842
0.0756988
0.116808
0.169979
0.223979
0.258823
0.258822
0.223978
0.169978
0.116807
0.0756978
0.0433836
0.00997326
-0.0301359
-0.0712621
-0.10253
-0.115588
-0.110622
-0.0935217
-0.0725899
-0.0544271
-0.0412752
-0.0317533
-0.023181
-0.0165435
-0.0124255
-0.0101986
-0.00710432
-0.00388229
-0.00252575
-0.00289804
-0.00344118
-0.00285662
-0.00198039
-0.000984564
-0.000697228
-0.0013357
-0.00175447
-0.00136578
-0.000823657
-0.000945246
-0.00129877
-0.00121608
-0.000766502
-0.000757371
-0.000880189
-0.000608597
-0.000480286
-0.000302037
-8.84519e-05
-0.000216949
-0.000445873
-0.000465195
-0.000123147
0.000116426
4.6812e-05
-2.95489e-05
-0.000429693
-0.000702735
-0.000235691
9.26712e-05
-4.23702e-05
-0.000390786
-0.000763364
-0.000627144
-0.000587406
-0.000757381
-0.000463108
-0.000716755
-0.00141983
-0.00123548
-0.00079577
-0.00140644
-0.00237889
-0.00211969
-0.00117567
-0.00124303
-0.00238502
-0.00271421
-0.00241687
-0.002719
-0.0025864
-0.00213431
-0.00336584
-0.00779816
-0.0120533
-0.0138953
-0.01654
-0.023821
-0.0358257
-0.0494013
-0.0650167
-0.0836483
-0.103945
-0.118939
-0.120554
-0.10311
-0.0677614
-0.0232698
0.0185606
0.0516739
0.0817021
0.120333
0.172703
0.228015
0.26449
0.26449
0.228014
0.172702
0.120332
0.0817013
0.0516735
0.0185603
-0.0232707
-0.0677636
-0.103113
-0.120557
-0.118941
-0.103945
-0.0836472
-0.0650152
-0.0493999
-0.0358245
-0.0238201
-0.0165398
-0.0138958
-0.012054
-0.00779828
-0.00336521
-0.00213357
-0.00258593
-0.00271889
-0.00241709
-0.00271462
-0.00238503
-0.00124238
-0.00117528
-0.00212017
-0.00237949
-0.00140628
-0.000795332
-0.00123562
-0.00142019
-0.000716611
-0.000462816
-0.000757368
-0.00058742
-0.000627264
-0.000763596
-0.000390771
-4.20834e-05
9.30276e-05
-0.000235698
-0.000703173
-0.000429914
-2.95103e-05
-5.30244e-05
-0.000263383
-0.000126733
0.000176472
-0.000208998
-0.000638443
-0.000774146
-0.000802229
-0.000514121
-0.000560034
-0.000766648
-0.000716755
-0.00112306
-0.00134833
-0.000756423
-0.000606976
-0.00171037
-0.00251879
-0.00174254
-0.00101057
-0.00218098
-0.00402184
-0.0037818
-0.00258133
-0.00274807
-0.00350603
-0.00361058
-0.00469144
-0.00903663
-0.013171
-0.0143983
-0.016181
-0.0245646
-0.0398486
-0.0571265
-0.0745736
-0.0928654
-0.11115
-0.122568
-0.119605
-0.0977291
-0.0594881
-0.0133738
0.0292991
0.0625984
0.0911973
0.126784
0.175492
0.228025
0.263142
0.263143
0.228025
0.175492
0.126784
0.0911969
0.0625983
0.029299
-0.0133745
-0.0594902
-0.0977324
-0.119609
-0.122571
-0.111151
-0.0928647
-0.0745723
-0.057125
-0.039847
-0.0245628
-0.0161797
-0.0143983
-0.0131718
-0.00903715
-0.0046911
-0.00360995
-0.00350551
-0.00274769
-0.00258137
-0.00378253
-0.00402263
-0.00218072
-0.00100975
-0.00174252
-0.00251956
-0.00171058
-0.000606316
-0.000756014
-0.00134865
-0.00112334
-0.000716611
-0.000766499
-0.000559905
-0.000513999
-0.000802381
-0.00077447
-0.000638634
-0.000208833
0.000176794
-0.000126704
-0.000263521
-5.30659e-05
0.000174147
0.000288175
0.000270759
-0.000137813
-0.000941125
-0.00087003
-0.000363578
-0.000355943
-0.000391528
-0.000689092
-0.00121593
-0.00141983
-0.00134833
-0.00106755
-0.000938228
-0.00142628
-0.00215812
-0.00195199
-0.000965757
-0.000905652
-0.00255207
-0.00420777
-0.00350225
-0.00195311
-0.00249145
-0.00495569
-0.00659788
-0.00763422
-0.0108203
-0.0144708
-0.0163621
-0.0190285
-0.028932
-0.0466373
-0.0667026
-0.0853409
-0.102427
-0.117086
-0.123077
-0.114094
-0.0874775
-0.0470882
-0.000576555
0.0424035
0.0764663
0.104595
0.136806
0.179348
0.225294
0.256211
0.256211
0.225295
0.179349
0.136807
0.104596
0.0764667
0.0424037
-0.000576961
-0.04709
-0.0874806
-0.114098
-0.12308
-0.117088
-0.102427
-0.0853399
-0.0667014
-0.0466358
-0.02893
-0.0190268
-0.0163616
-0.0144714
-0.0108213
-0.00763478
-0.006598
-0.00495533
-0.00249063
-0.00195252
-0.00350266
-0.00420879
-0.00255226
-0.000904674
-0.000964923
-0.00195231
-0.00215885
-0.00142624
-0.000937626
-0.00106731
-0.00134865
-0.00142019
-0.00121608
-0.000689006
-0.000391224
-0.000355634
-0.000363533
-0.000870403
-0.00094156
-0.000137768
0.000271131
0.000288447
0.000174227
0.000142403
-4.05642e-05
-0.000377886
-0.00054752
-0.00069802
-0.000208006
-2.60713e-06
-0.000658189
-0.000879116
-0.000910452
-0.00129846
-0.00123548
-0.000756423
-0.000938228
-0.00192487
-0.0025922
-0.00219749
-0.00137436
-0.0014218
-0.00230579
-0.00334353
-0.00382148
-0.00274228
-0.00127374
-0.00215315
-0.00588803
-0.00859635
-0.00878793
-0.00990272
-0.0135315
-0.0180476
-0.023589
-0.0353313
-0.054761
-0.0773551
-0.0974993
-0.113352
-0.12341
-0.122844
-0.107263
-0.0763087
-0.034812
0.0108138
0.0533325
0.0882301
0.116371
0.144816
0.179091
0.215226
0.239501
0.239501
0.215228
0.179093
0.144818
0.116372
0.0882309
0.0533329
0.0108135
-0.0348135
-0.0763117
-0.107267
-0.122848
-0.123413
-0.113353
-0.0974991
-0.0773542
-0.0547597
-0.0353296
-0.0235872
-0.0180464
-0.013531
-0.00990312
-0.00878886
-0.00859723
-0.00588804
-0.00215204
-0.00127246
-0.00274197
-0.00382229
-0.00334439
-0.00230565
-0.00142081
-0.00137377
-0.00219805
-0.00259308
-0.00192496
-0.000937627
-0.000756015
-0.00123562
-0.00129877
-0.00091063
-0.000879204
-0.00065807
-2.19204e-06
-0.000207759
-0.000698232
-0.000547808
-0.000377952
-4.04712e-05
0.00014247
-0.000174883
-0.000832242
-0.000908387
-0.000208902
-1.15707e-05
4.31048e-05
-0.000332893
-0.00130967
-0.00139606
-0.00094176
-0.000945339
-0.00079577
-0.000606976
-0.00142628
-0.0025922
-0.00240331
-0.00122121
-0.00123073
-0.00300753
-0.00423531
-0.00382889
-0.00312448
-0.00265511
-0.00230379
-0.00355492
-0.00746301
-0.0100687
-0.00878555
-0.00789841
-0.0122117
-0.0203357
-0.0292266
-0.0419956
-0.0619787
-0.0864285
-0.107976
-0.12201
-0.126264
-0.118158
-0.0958861
-0.0613739
-0.0198527
0.023668
0.0647488
0.0999144
0.127929
0.152075
0.176516
0.200451
0.216257
0.216258
0.200453
0.176518
0.152078
0.127931
0.0999158
0.0647495
0.0236678
-0.019854
-0.0613765
-0.0958899
-0.118162
-0.126268
-0.122012
-0.107977
-0.0864277
-0.0619772
-0.041994
-0.0292251
-0.020334
-0.0122101
-0.0078975
-0.0087861
-0.0100702
-0.00746382
-0.00355433
-0.00230246
-0.00265411
-0.00312452
-0.00382994
-0.00423641
-0.00300745
-0.00122958
-0.00122059
-0.00240397
-0.00259308
-0.00142624
-0.000606315
-0.000795327
-0.000945245
-0.000941884
-0.0013965
-0.00131009
-0.000332753
4.3582e-05
-1.1231e-05
-0.000208898
-0.000908741
-0.000832616
-0.000175003
0.000108657
-0.000266491
-0.000270288
0.000297935
-0.000296532
-0.000948015
-0.00102065
-0.00128161
-0.000995304
-0.000483017
-0.000824059
-0.00140644
-0.00171037
-0.00215812
-0.00219749
-0.00122121
-0.000596253
-0.00193871
-0.00427089
-0.00460801
-0.00280044
-0.00196949
-0.0033395
-0.00490886
-0.00623629
-0.00903288
-0.0108011
-0.00891225
-0.00768367
-0.0135736
-0.0252827
-0.0370192
-0.0501074
-0.0697989
-0.0952173
-0.117249
-0.128064
-0.125033
-0.108419
-0.0795488
-0.0420848
-0.00123201
0.0395205
0.0783534
0.113044
0.140513
0.160052
0.173938
0.184456
0.19079
0.190791
0.184459
0.173941
0.160055
0.140516
0.113047
0.0783546
0.0395207
-0.00123285
-0.0420868
-0.0795519
-0.108423
-0.125037
-0.128067
-0.117251
-0.0952168
-0.0697973
-0.0501058
-0.0370182
-0.0252814
-0.0135715
-0.0076817
-0.00891193
-0.0108025
-0.0090345
-0.00623692
-0.00490839
-0.00333829
-0.00196834
-0.00280049
-0.00460939
-0.00427199
-0.00193817
-0.000594824
-0.00122059
-0.00219805
-0.00215885
-0.00171058
-0.00140627
-0.000823656
-0.000482574
-0.000995302
-0.00128199
-0.001021
-0.000948208
-0.000296343
0.000298329
-0.000270265
-0.000266592
0.000108685
0.000600699
0.000682548
0.000262461
7.10731e-06
-0.00120876
-0.00167808
-0.000826073
-0.000456975
-0.000474255
-0.000564881
-0.00136576
-0.00237889
-0.00251879
-0.00195199
-0.00137436
-0.00123073
-0.00193871
-0.00337702
-0.00435094
-0.00331123
-0.00126618
-0.00143541
-0.00475251
-0.0076771
-0.00802283
-0.00855722
-0.00958082
-0.00902868
-0.00950319
-0.0172359
-0.0315597
-0.0456858
-0.0595263
-0.0790826
-0.10477
-0.125992
-0.132359
-0.121282
-0.0962016
-0.0615077
-0.0220212
0.017465
0.0548761
0.0905725
0.123763
0.149977
0.164791
0.168215
0.165262
0.161949
0.16195
0.165265
0.168218
0.164795
0.149981
0.123766
0.0905743
0.0548767
0.0174646
-0.0220225
-0.0615101
-0.0962054
-0.121287
-0.132363
-0.125995
-0.10477
-0.0790811
-0.0595247
-0.0456849
-0.031559
-0.0172342
-0.00950078
-0.00902719
-0.00958103
-0.00855858
-0.00802439
-0.00767798
-0.0047519
-0.0014336
-0.00126477
-0.00331154
-0.00435237
-0.00337785
-0.00193817
-0.00122958
-0.00137377
-0.00195231
-0.00251956
-0.00237949
-0.00136578
-0.000564381
-0.000473729
-0.000456675
-0.000826175
-0.00167874
-0.0012092
7.3224e-06
0.000262757
0.000682961
0.000601021
0.000212332
-0.000227692
-0.000808892
-0.000687306
-0.000904114
-0.000702632
4.20274e-05
-0.000223666
-0.00123223
-0.00163481
-0.001754
-0.00211969
-0.00174254
-0.000965757
-0.0014218
-0.00300753
-0.00427089
-0.00435094
-0.0034951
-0.00222642
-0.00146722
-0.00275671
-0.00659555
-0.00916392
-0.00754275
-0.00576695
-0.0071375
-0.0098989
-0.0132887
-0.0221585
-0.0377315
-0.0542536
-0.0699639
-0.0896548
-0.11419
-0.132619
-0.133359
-0.114178
-0.0813918
-0.0419544
-0.00144332
0.0360438
0.0695407
0.101196
0.131682
0.155808
0.165945
0.159708
0.144224
0.131836
0.131837
0.144226
0.159711
0.165949
0.155812
0.131686
0.101198
0.0695419
0.0360439
-0.00144406
-0.0419562
-0.081395
-0.114183
-0.133365
-0.132623
-0.114192
-0.0896543
-0.0699624
-0.0542526
-0.0377309
-0.0221574
-0.0132868
-0.00989668
-0.00713594
-0.00576673
-0.00754405
-0.00916578
-0.00659621
-0.00275553
-0.00146528
-0.00222532
-0.00349558
-0.00435237
-0.004272
-0.00300745
-0.00142081
-0.000964926
-0.00174252
-0.00212017
-0.00175448
-0.0016351
-0.0012322
-0.00022315
4.26245e-05
-0.000702664
-0.000904438
-0.000687466
-0.000809119
-0.000227651
0.000212536
-0.000373832
-0.00123579
-0.00147576
-0.000607491
0.000178633
0.000115233
-0.000338232
-0.00115969
-0.00232157
-0.00228804
-0.00133562
-0.00117567
-0.00101057
-0.000905652
-0.00230579
-0.00423531
-0.00460801
-0.00331123
-0.00222642
-0.00273693
-0.00427085
-0.00605751
-0.00870751
-0.00967689
-0.00646477
-0.00369987
-0.00652438
-0.0130201
-0.0186944
-0.0271619
-0.0426691
-0.061701
-0.0800249
-0.0992427
-0.120333
-0.133686
-0.128147
-0.101734
-0.0627135
-0.0199526
0.0204168
0.0550286
0.0838259
0.110397
0.136895
0.158024
0.163648
0.149029
0.122698
0.102382
0.102383
0.1227
0.149032
0.163652
0.158028
0.136899
0.1104
0.0838278
0.0550295
0.0204168
-0.0199535
-0.0627158
-0.101738
-0.128153
-0.133692
-0.120336
-0.0992436
-0.0800239
-0.0616994
-0.0426678
-0.027161
-0.0186934
-0.0130183
-0.00652185
-0.00369794
-0.00646489
-0.00967888
-0.00870948
-0.00605805
-0.00426993
-0.00273531
-0.00222533
-0.00331154
-0.00460939
-0.00423641
-0.00230565
-0.000904673
-0.00100974
-0.00117528
-0.0013357
-0.00228868
-0.00232231
-0.00115985
-0.000337795
0.000115793
0.000179036
-0.0006075
-0.00147634
-0.00123627
-0.000373893
-0.000130643
-4.22884e-05
8.69138e-06
-4.00689e-05
2.76771e-05
-0.00100131
-0.00196346
-0.00170417
-0.00190163
-0.00164641
-0.000697901
-0.00124303
-0.00218098
-0.00255207
-0.00334353
-0.00382889
-0.00280044
-0.00126618
-0.00146722
-0.00427085
-0.00746725
-0.0085638
-0.00904851
-0.00873602
-0.00602172
-0.00446493
-0.00929409
-0.0185777
-0.0254319
-0.0329617
-0.048283
-0.0701463
-0.0909885
-0.108303
-0.123396
-0.129751
-0.117924
-0.0856299
-0.0419547
0.00297407
0.0422834
0.0733399
0.0968633
0.117734
0.139438
0.157074
0.158693
0.137451
0.10256
0.0759153
0.0759157
0.102561
0.137453
0.158696
0.157078
0.139442
0.117737
0.0968661
0.0733417
0.0422842
0.00297393
-0.0419561
-0.0856331
-0.117929
-0.129757
-0.123401
-0.108306
-0.0909889
-0.0701448
-0.0482809
-0.0329603
-0.0254315
-0.0185771
-0.00929197
-0.00446216
-0.00602028
-0.0087368
-0.00905053
-0.00856571
-0.00746804
-0.00426993
-0.00146529
-0.00126477
-0.00280049
-0.00382994
-0.00334439
-0.00255226
-0.00218071
-0.00124237
-0.000697232
-0.00164633
-0.00190199
-0.00170467
-0.00196393
-0.00100134
2.80759e-05
-3.97242e-05
8.76494e-06
-4.23173e-05
-0.000130636
0.000102366
0.00103765
0.000897285
-0.000636105
-0.0010567
-0.00194988
-0.00229647
-0.000650447
-0.000483981
-0.00106399
-0.000985167
-0.00238502
-0.00402184
-0.00420777
-0.00382148
-0.00312448
-0.00196949
-0.00143541
-0.00275671
-0.00605751
-0.0085638
-0.00750492
-0.00579665
-0.00570279
-0.00609624
-0.00757543
-0.0142313
-0.0251651
-0.0332827
-0.0411921
-0.0572188
-0.0815931
-0.103503
-0.116863
-0.123698
-0.121838
-0.104069
-0.0672772
-0.0202473
0.0259772
0.0635103
0.0904306
0.108305
0.123287
0.139888
0.153899
0.152185
0.126248
0.0853333
0.0541893
0.0541895
0.0853341
0.126249
0.152187
0.153902
0.139892
0.123291
0.108309
0.0904334
0.0635122
0.025978
-0.020248
-0.0672794
-0.104073
-0.121844
-0.123704
-0.116868
-0.103506
-0.0815931
-0.0572168
-0.0411902
-0.0332823
-0.0251655
-0.0142303
-0.00757304
-0.00609367
-0.00570138
-0.0057969
-0.00750654
-0.00856569
-0.00605804
-0.00275553
-0.00143359
-0.00196833
-0.00312452
-0.0038223
-0.00420879
-0.00402263
-0.00238503
-0.000984568
-0.00106341
-0.000483381
-0.000650223
-0.00229706
-0.00195048
-0.00105694
-0.000636062
0.000897805
0.00103814
0.000102476
-0.000642411
-0.000253356
-0.000450197
-0.00189002
-0.000990662
-0.000835323
-0.00125336
-2.07084e-06
-0.000640749
-0.00204999
-0.00198031
-0.00271421
-0.0037818
-0.00350225
-0.00274228
-0.00265511
-0.0033395
-0.00475251
-0.00659555
-0.00870751
-0.00904851
-0.00579665
-0.00288987
-0.00403683
-0.00786455
-0.0113377
-0.0176753
-0.0285677
-0.0384952
-0.0485263
-0.0658105
-0.0914064
-0.112639
-0.121189
-0.119773
-0.110653
-0.0887233
-0.0497624
-0.00141625
0.0444772
0.078915
0.100662
0.112423
0.121516
0.133066
0.143522
0.139158
0.110362
0.0659517
0.0321752
0.0321752
0.065952
0.110363
0.13916
0.143525
0.133069
0.12152
0.112427
0.100666
0.0789178
0.0444787
-0.00141624
-0.0497639
-0.0887262
-0.110658
-0.119778
-0.121195
-0.112645
-0.0914087
-0.0658094
-0.0485239
-0.0384936
-0.0285674
-0.0176749
-0.0113364
-0.00786221
-0.00403403
-0.00288803
-0.00579689
-0.00905051
-0.00870948
-0.00659622
-0.00475191
-0.00333829
-0.00265412
-0.00274197
-0.00350266
-0.00378253
-0.00271462
-0.00198039
-0.00205001
-0.000640223
-1.38999e-06
-0.00125331
-0.000835351
-0.000990858
-0.00189051
-0.000450159
-0.000253268
-0.000642562
-0.00122344
-0.00116437
-0.000977308
-0.00189885
-0.000141952
0.000161208
-0.0012465
-0.00102971
-0.00204683
-0.0034317
-0.00285619
-0.00241687
-0.00258133
-0.00195311
-0.00127374
-0.00230379
-0.00490886
-0.0076771
-0.00916392
-0.00967689
-0.00873602
-0.00570279
-0.00403683
-0.00727211
-0.0135795
-0.0172936
-0.0218134
-0.0320619
-0.0445413
-0.0572023
-0.0742517
-0.0978041
-0.11563
-0.118663
-0.109585
-0.0942565
-0.0693746
-0.0298733
0.0181487
0.0621918
0.0923065
0.108031
0.113536
0.117126
0.124024
0.131108
0.124617
0.0944831
0.0488363
0.0141589
0.0141588
0.0488361
0.0944832
0.124618
0.131109
0.124027
0.11713
0.11354
0.108035
0.0923103
0.0621943
0.0181496
-0.0298739
-0.0693763
-0.0942594
-0.10959
-0.118669
-0.115636
-0.0978085
-0.0742527
-0.0572007
-0.044539
-0.0320602
-0.0218127
-0.0172934
-0.0135786
-0.00726978
-0.00403405
-0.00570138
-0.00873681
-0.00967889
-0.0091658
-0.00767799
-0.00490839
-0.00230246
-0.00127246
-0.00195251
-0.00258136
-0.00241709
-0.00285662
-0.00343238
-0.002047
-0.00102944
-0.00124632
0.000161779
-0.000141641
-0.00189931
-0.000977475
-0.00116464
-0.00122384
-0.000922025
-0.000235305
0.000290023
-0.000979268
4.07943e-06
-0.000292512
-0.00214319
-0.0021055
-0.00258921
-0.00374328
-0.00344093
-0.002719
-0.00274807
-0.00249145
-0.00215315
-0.00355492
-0.00623629
-0.00802283
-0.00754275
-0.00646477
-0.00602172
-0.00609624
-0.00786455
-0.0135795
-0.0216805
-0.0257227
-0.0296324
-0.0404533
-0.0560334
-0.0702732
-0.0842156
-0.101909
-0.113914
-0.111306
-0.0955017
-0.0746905
-0.0472735
-0.00815462
0.0382735
0.07912
0.10403
0.113378
0.113072
0.11204
0.115071
0.119109
0.11091
0.0806496
0.035706
0.00166211
0.00166187
0.0357055
0.0806492
0.11091
0.119109
0.115073
0.112042
0.113076
0.113382
0.104034
0.0791238
0.0382756
-0.00815399
-0.0472739
-0.0746918
-0.0955045
-0.111311
-0.113921
-0.101915
-0.0842193
-0.0702743
-0.0560321
-0.0404511
-0.0296308
-0.0257228
-0.0216811
-0.0135787
-0.00786223
-0.00609368
-0.00602029
-0.0064649
-0.00754405
-0.00802439
-0.00623691
-0.00355432
-0.00215204
-0.00249062
-0.00274769
-0.0027189
-0.00344118
-0.00374384
-0.00258953
-0.00210565
-0.00214341
-0.000292093
4.52499e-06
-0.000979384
0.000290255
-0.000235361
-0.0009224
-0.000483837
0.00048868
0.000810328
-0.000971581
-0.000951471
-0.00132796
-0.00262409
-0.0022047
-0.00171724
-0.00249845
-0.00289825
-0.0025864
-0.00350603
-0.00495569
-0.00588803
-0.00746301
-0.00903288
-0.00855722
-0.00576695
-0.00369987
-0.00446493
-0.00757543
-0.0113377
-0.0172936
-0.0257227
-0.0310623
-0.0368403
-0.0499924
-0.068947
-0.0839754
-0.0938377
-0.104993
-0.112031
-0.106105
-0.0860895
-0.0612239
-0.0318998
0.00595443
0.0496322
0.0863345
0.105982
0.1097
0.10514
0.10128
0.101974
0.103802
0.0945736
0.0653724
0.0229096
-0.00911126
-0.00911156
0.0229089
0.0653717
0.0945732
0.103802
0.101975
0.101281
0.105143
0.109705
0.105987
0.0863391
0.0496353
0.00595592
-0.0318996
-0.0612244