/*--------------------------------*- C++ -*----------------------------------*\
  =========                 |
  \\      /  F ield         | OpenFOAM: The Open Source CFD Toolbox
   \\    /   O peration     | Website:  https://openfoam.org
    \\  /    A nd           | Version:  10
     \\/     M anipulation  |
\*---------------------------------------------------------------------------*/
FoamFile
{
    format      ascii;
    class       volScalarField;
    location    "80";
    object      h;
}
// * * * * * * * * * * * * * * * * * * * * * * * * * * * * * * * * * * * * * //

dimensions      [0 1 0 0 0 0 0];

internalField   nonuniform List<scalar> 
10000
(
-0.00081528
-0.00244377
-0.00405199
-0.00554952
-0.0067437
-0.00739918
-0.00736725
-0.00667997
-0.00554012
-0.00419399
-0.002755
-0.00119355
0.000505768
0.00218973
0.00354617
0.00430228
0.00447539
0.0044093
0.00453943
0.0051482
0.00627738
0.00779314
0.00949234
0.011164
0.012644
0.0138546
0.0147442
0.0152307
0.0152259
0.0146693
0.0135592
0.0119926
0.010139
0.00818594
0.00632229
0.00470068
0.00334196
0.00209616
0.000808528
-0.000496101
-0.00170874
-0.00281937
-0.00384467
-0.00468099
-0.00520847
-0.00550306
-0.00576971
-0.00607277
-0.00630794
-0.00641152
-0.00641151
-0.00630789
-0.00607265
-0.00576952
-0.00550289
-0.00520838
-0.00468103
-0.00384485
-0.0028197
-0.00170924
-0.000496797
0.000807653
0.00209518
0.00334099
0.00469982
0.00632158
0.00818535
0.0101385
0.0119921
0.0135589
0.0146692
0.015226
0.0152311
0.0147448
0.0138555
0.012645
0.0111651
0.00949342
0.00779415
0.00627831
0.00514902
0.00454011
0.00440983
0.00447577
0.00430252
0.00354627
0.00218969
0.000505635
-0.00119373
-0.0027552
-0.00419423
-0.00554039
-0.00668025
-0.0073675
-0.00739939
-0.00674385
-0.00554963
-0.00405208
-0.00244385
-0.000815315
-0.00244377
-0.00731924
-0.0121129
-0.0165406
-0.0200264
-0.0218785
-0.0216626
-0.0194811
-0.0159497
-0.0118155
-0.00742525
-0.00269687
0.00240801
0.0074294
0.0114445
0.0136473
0.0140754
0.0137208
0.0138562
0.0153174
0.0182345
0.0222221
0.0267066
0.0311103
0.0349903
0.038132
0.0403814
0.0415063
0.0412748
0.0395413
0.0363161
0.0318771
0.0266946
0.0212797
0.0161469
0.0117161
0.0080349
0.00465715
0.00112328
-0.00249834
-0.00588898
-0.00902176
-0.0119586
-0.0144146
-0.0160424
-0.017036
-0.0179425
-0.0189058
-0.0196145
-0.019912
-0.019912
-0.0196145
-0.0189056
-0.0179422
-0.0170358
-0.0160424
-0.0144149
-0.0119593
-0.00902288
-0.00589052
-0.00250035
0.00112084
0.00465449
0.00803232
0.0117138
0.0161451
0.0212783
0.0266934
0.0318761
0.0363154
0.0395411
0.0412752
0.0415074
0.0403831
0.0381342
0.034993
0.0311132
0.0267095
0.0222248
0.0182369
0.0153195
0.0138578
0.013722
0.0140762
0.0136477
0.0114446
0.00742913
0.00240753
-0.00269745
-0.00742587
-0.0118162
-0.0159504
-0.0194818
-0.0216632
-0.021879
-0.0200268
-0.0165409
-0.0121131
-0.00731942
-0.00244385
-0.00405199
-0.0121129
-0.0199665
-0.0271102
-0.0325962
-0.0353142
-0.0345778
-0.0305814
-0.0243731
-0.017218
-0.00971502
-0.0017483
0.0067319
0.0149742
0.0214912
0.0249781
0.0254554
0.0244611
0.0240128
0.0254619
0.0290344
0.0341357
0.039911
0.0455518
0.0504588
0.0543297
0.0569127
0.0578566
0.0568667
0.053803
0.0487342
0.0420859
0.0345274
0.026757
0.0194797
0.013287
0.00822048
0.00355969
-0.00143181
-0.0066494
-0.0115874
-0.0162155
-0.0206746
-0.0245663
-0.0273491
-0.0292523
-0.0310013
-0.032707
-0.0338632
-0.0343065
-0.0343066
-0.0338635
-0.0327072
-0.0310015
-0.0292527
-0.0273499
-0.0245675
-0.0206763
-0.0162177
-0.01159
-0.00665248
-0.00143527
0.00355611
0.00821716
0.0132843
0.0194777
0.0267555
0.0345262
0.0420849
0.0487335
0.0538029
0.0568674
0.0578581
0.0569151
0.0543328
0.0504623
0.0455555
0.0399146
0.0341389
0.0290372
0.0254642
0.0240145
0.0244622
0.0254559
0.0249781
0.0214907
0.0149734
0.00673093
-0.00174932
-0.00971602
-0.017219
-0.0243741
-0.0305824
-0.0345786
-0.0353148
-0.0325966
-0.0271105
-0.0199668
-0.0121131
-0.00405208
-0.00554952
-0.0165406
-0.0271102
-0.0365224
-0.0434901
-0.0465424
-0.0447965
-0.0385771
-0.0293835
-0.0190062
-0.00831665
0.00281273
0.0144526
0.0256191
0.0343468
0.0388875
0.0392047
0.0372515
0.0356544
0.0362054
0.0392266
0.0439748
0.0494266
0.0546924
0.0591495
0.0624637
0.0642926
0.0641992
0.0619121
0.0574037
0.0508646
0.0428278
0.0340259
0.0251667
0.0169788
0.0101144
0.00458855
-0.000527406
-0.00616765
-0.0121768
-0.0178967
-0.0233267
-0.0287376
-0.0337032
-0.0375311
-0.0403979
-0.0430359
-0.0454248
-0.0469026
-0.0473962
-0.0473964
-0.0469034
-0.0454258
-0.0430372
-0.0403996
-0.0375331
-0.0337057
-0.0287404
-0.0233299
-0.0179002
-0.0121805
-0.00617133
-0.000530891
0.00458558
0.0101122
0.0169774
0.0251658
0.0340253
0.0428273
0.0508644
0.0574039
0.0619129
0.0642008
0.064295
0.0624668
0.0591529
0.0546959
0.04943
0.0439777
0.0392289
0.036207
0.0356553
0.0372518
0.0392044
0.0388867
0.0343456
0.0256177
0.0144511
0.00281135
-0.0083179
-0.0190074
-0.0293846
-0.0385781
-0.0447973
-0.046543
-0.0434905
-0.0365228
-0.0271105
-0.0165409
-0.00554963
-0.0067437
-0.0200264
-0.0325962
-0.0434901
-0.051137
-0.053791
-0.0504574
-0.0416437
-0.0293049
-0.0157372
-0.00208951
0.0117702
0.0259811
0.0394394
0.0498316
0.0550531
0.0549965
0.0519061
0.0488533
0.0479529
0.0496063
0.052995
0.0570364
0.0608679
0.0639252
0.0658755
0.0662959
0.06469
0.0608685
0.0549993
0.0474514
0.0388239
0.0297725
0.020839
0.0126252
0.0057607
0.000253445
-0.00490787
-0.0107133
-0.0169143
-0.0227473
-0.0282958
-0.0340126
-0.0395143
-0.0439996
-0.0475417
-0.0507849
-0.0535606
-0.0551201
-0.0555382
-0.0555386
-0.0551213
-0.0535624
-0.0507873
-0.0475445
-0.0440028
-0.0395177
-0.0340162
-0.0282996
-0.022751
-0.0169177
-0.0107164
-0.00491032
0.000251703
0.00575974
0.0126249
0.0208392
0.0297728
0.0388242
0.0474516
0.0549996
0.0608692
0.0646913
0.0662978
0.0658779
0.0639279
0.0608706
0.057039
0.0529972
0.0496078
0.0479537
0.0488534
0.0519056
0.0549955
0.0550517
0.0498299
0.0394376
0.0259794
0.0117687
-0.00209077
-0.0157383
-0.0293058
-0.0416446
-0.0504581
-0.0537915
-0.0511374
-0.0434905
-0.0325966
-0.0200268
-0.00674386
-0.00739918
-0.0218785
-0.0353142
-0.0465424
-0.053791
-0.055159
-0.0496508
-0.0380119
-0.0226407
-0.00629201
0.00963334
0.0252974
0.0409931
0.0556515
0.0667817
0.0720493
0.0712982
0.0669629
0.0623934
0.0598861
0.0598842
0.0615551
0.0638366
0.0659363
0.0673607
0.0677807
0.0667115
0.0636279
0.0584501
0.0515784
0.0435907
0.0351118
0.0265986
0.0182828
0.0105256
0.00388926
-0.00156751
-0.00677127
-0.012594
-0.0186462
-0.0241229
-0.0292497
-0.0346859
-0.040121
-0.044677
-0.0483252
-0.0516304
-0.0543488
-0.0557256
-0.0559691
-0.0559696
-0.0557268
-0.0543509
-0.0516333
-0.0483285
-0.0446805
-0.0401245
-0.0346894
-0.0292531
-0.024126
-0.0186487
-0.0125958
-0.00677221
-0.00156773
0.00388958
0.0105263
0.0182836
0.0265993
0.0351123
0.0435909
0.0515785
0.0584503
0.0636285
0.0667126
0.0677823
0.0673625
0.0659384
0.0638385
0.0615567
0.0598852
0.0598864
0.0623931
0.0669621
0.071297
0.0720478
0.0667801
0.0556498
0.0409916
0.0252961
0.0096323
-0.0062929
-0.0226415
-0.0380126
-0.0496514
-0.0551596
-0.0537915
-0.046543
-0.0353148
-0.021879
-0.00739939
-0.00736725
-0.0216626
-0.0345778
-0.0447965
-0.0504574
-0.0496508
-0.0414976
-0.0270299
-0.00906302
0.00926049
0.0263494
0.0424519
0.0581172
0.0724834
0.0830831
0.0875063
0.0855853
0.0798553
0.0737984
0.0697671
0.0681952
0.0682529
0.0689207
0.0694642
0.0694315
0.0684936
0.0661495
0.061905
0.0558117
0.0484982
0.0407443
0.033158
0.0259087
0.0188175
0.011928
0.005708
0.000328028
-0.00490364
-0.0106025
-0.0162287
-0.0210113
-0.025348
-0.0300732
-0.0349332
-0.0389982
-0.0421783
-0.0450265
-0.0473327
-0.0483921
-0.0484593
-0.0484596
-0.048393
-0.0473343
-0.0450288
-0.0421809
-0.0390009
-0.0349358
-0.0300755
-0.0253501
-0.021013
-0.0162298
-0.0106028
-0.00490321
0.000328929
0.00570905
0.0119289
0.0188182
0.0259091
0.0331581
0.0407441
0.0484978
0.0558113
0.0619049
0.0661499
0.0684945
0.0694329
0.0694659
0.0689225
0.0682545
0.0681964
0.0697676
0.0737984
0.0798547
0.0855844
0.0875052
0.0830818
0.0724822
0.0581162
0.042451
0.0263487
0.00925986
-0.00906365
-0.0270305
-0.0414982
-0.0496514
-0.0504581
-0.0447973
-0.0345786
-0.0216632
-0.00736751
-0.00667997
-0.0194811
-0.0305814
-0.0385771
-0.0416437
-0.0380119
-0.0270299
-0.0100494
0.00974418
0.0289232
0.0458026
0.0607874
0.0747706
0.0872522
0.0959909
0.0986607
0.0951065
0.0878598
0.0804029
0.0750487
0.0721665
0.0708899
0.0701989
0.0693719
0.067974
0.0656997
0.062124
0.0568987
0.0502632
0.0430606
0.0362307
0.0303102
0.0251224
0.0200281
0.0147089
0.00950913
0.00472668
-3.02166e-05
-0.00508487
-0.0098069
-0.0135339
-0.0168079
-0.0205461
-0.0245102
-0.0277502
-0.0301625
-0.0323392
-0.0341687
-0.0350013
-0.0350122
-0.0350122
-0.0350014
-0.0341691
-0.0323398
-0.0301633
-0.0277509
-0.0245109
-0.0205465
-0.0168081
-0.0135339
-0.00980649
-0.00508402
-2.9011e-05
0.00472794
0.00951009
0.0147094
0.0200281
0.025122
0.0303096
0.03623
0.0430598
0.0502625
0.0568983
0.0621242
0.0657005
0.0679755
0.0693738
0.070201
0.0708918
0.072168
0.0750497
0.0804033
0.0878597
0.095106
0.09866
0.0959901
0.0872515
0.07477
0.0607869
0.0458022
0.0289228
0.0097437
-0.01005
-0.0270305
-0.0380126
-0.0416446
-0.0385781
-0.0305824
-0.0194818
-0.00668026
-0.00554012
-0.0159497
-0.0243731
-0.0293835
-0.0293049
-0.0226407
-0.00906302
0.00974418
0.0303086
0.0490584
0.0643394
0.0767851
0.0876884
0.0970156
0.102912
0.103269
0.0979516
0.0893637
0.0808492
0.0745953
0.0708413
0.0685962
0.0667423
0.0645134
0.0614962
0.0574768
0.0522442
0.0457663
0.0385836
0.0317655
0.026355
0.0227462
0.0203812
0.0181663
0.0154211
0.0123276
0.00925368
0.00605266
0.0026103
-0.000468944
-0.00268138
-0.00462498
-0.00717302
-0.010073
-0.0124082
-0.0140894
-0.0157241
-0.0172775
-0.0181193
-0.0182456
-0.0182452
-0.0181185
-0.0172764
-0.0157228
-0.014088
-0.0124067
-0.0100715
-0.00717149
-0.00462337
-0.00267974
-0.000467337
0.00261184
0.00605403
0.00925466
0.0123279
0.0154207
0.0181653
0.0203799
0.022745
0.026354
0.0317648
0.0385833
0.0457664
0.0522448
0.0574779
0.061498
0.0645156
0.0667445
0.0685982
0.0708429
0.0745964
0.0808497
0.0893636
0.0979511
0.103269
0.102911
0.097015
0.087688
0.0767848
0.0643391
0.0490581
0.0303082
0.00974369
-0.00906365
-0.0226415
-0.0293058
-0.0293846
-0.0243741
-0.0159504
-0.00554041
-0.00419399
-0.0118155
-0.017218
-0.0190062
-0.0157372
-0.00629201
0.00926049
0.0289232
0.0490584
0.0661176
0.0786117
0.08747
0.0944141
0.0999207
0.102605
0.10066
0.0939614
0.0846742
0.0758653
0.0694988
0.0655989
0.0629308
0.0601507
0.0563819
0.0512611
0.0447721
0.0370823
0.0286628
0.0204962
0.0139153
0.0100087
0.00895152
0.00979796
0.0110752
0.0118022
0.0119598
0.0118594
0.0114459
0.0106634
0.00997719
0.00973383
0.0094063
0.00828267
0.00661577
0.00520521
0.00411727
0.00281673
0.00134511
0.000343931
1.52064e-05
1.57056e-05
0.000345339
0.00134725
0.00281943
0.00412032
0.0052083
0.00661871
0.00828548
0.00940908
0.00973652
0.00997959
0.0106653
0.0114472
0.01186
0.0119596
0.0118014
0.0110739
0.00979652
0.00895033
0.010008
0.0139152
0.0204966
0.0286637
0.0370835
0.0447738
0.0512631
0.0563841
0.0601528
0.0629325
0.0656001
0.0694993
0.0758653
0.0846736
0.0939604
0.100659
0.102604
0.0999199
0.0944136
0.0874696
0.0786114
0.0661173
0.0490581
0.0289228
0.00925985
-0.00629289
-0.0157382
-0.0190073
-0.017219
-0.0118162
-0.00419425
-0.002755
-0.00742525
-0.00971502
-0.00831665
-0.00208951
0.00963334
0.0263494
0.0458026
0.0643394
0.0786117
0.0874242
0.0920551
0.0946623
0.0962303
0.0958584
0.0920638
0.0847253
0.0756984
0.0676613
0.0622524
0.0591889
0.0568774
0.0536198
0.0483485
0.0407715
0.031185
0.0202923
0.00921956
-0.000508045
-0.00727871
-0.0100231
-0.00885055
-0.0050557
-0.000342833
0.0041318
0.00812343
0.0117313
0.0148131
0.0172477
0.0193216
0.0212871
0.0228121
0.0234134
0.0232835
0.0230025
0.0226054
0.0217188
0.0204626
0.0194654
0.0190461
0.0190466
0.0194667
0.0204647
0.0217217
0.0226088
0.023006
0.0232868
0.0234165
0.0228153
0.0212903
0.0193245
0.0172499
0.0148146
0.0117319
0.00812327
0.0041311
-0.000343785
-0.00505658
-0.00885104
-0.010023
-0.00727794
-0.00050674
0.00922123
0.0202942
0.0311869
0.0407734
0.0483502
0.0536212
0.0568783
0.0591891
0.062252
0.0676604
0.0756971
0.0847237
0.0920622
0.0958571
0.0962293
0.0946615
0.0920545
0.0874237
0.0786114
0.0643391
0.0458022
0.0263487
0.00963231
-0.00209076
-0.00831788
-0.00971601
-0.00742587
-0.00275523
-0.00119355
-0.00269687
-0.0017483
0.00281273
0.0117702
0.0252974
0.0424519
0.0607874
0.0767851
0.08747
0.0920551
0.0921907
0.090435
0.0882367
0.0851558
0.0800377
0.0727795
0.0649121
0.0586586
0.0552472
0.0540184
0.0529543
0.0499131
0.0435488
0.0336221
0.0208181
0.00648828
-0.00751668
-0.019125
-0.0264969
-0.0286583
-0.0260334
-0.0201756
-0.0128311
-0.00517814
0.00230854
0.00939092
0.0157254
0.021101
0.0256824
0.0297196
0.0331505
0.0357284
0.0375157
0.0387908
0.0395358
0.0395661
0.0390723
0.0385765
0.0383682
0.0383685
0.0385772
0.0390736
0.039568
0.0395383
0.0387935
0.0375183
0.035731
0.0331534
0.0297226
0.0256854
0.0211035
0.0157272
0.00939198
0.00230893
-0.00517816
-0.0128312
-0.0201756
-0.0260329
-0.0286573
-0.0264954
-0.019123
-0.00751447
0.00649051
0.0208201
0.0336236
0.0435498
0.0499136
0.0529543
0.0540178
0.0552461
0.0586571
0.0649104
0.0727777
0.0800359
0.0851544
0.0882355
0.090434
0.09219
0.0920545
0.0874696
0.0767848
0.0607869
0.042451
0.0252961
0.0117687
0.00281137
-0.00174931
-0.00269745
-0.00119375
0.000505768
0.00240801
0.0067319
0.0144526
0.0259811
0.0409931
0.0581172
0.0747706
0.0876884
0.0944141
0.0946623
0.090435
0.0845873
0.0789313
0.0734499
0.0673412
0.060576
0.0544005
0.05057
0.0498589
0.0512053
0.0521636
0.0501236
0.0433964
0.0317416
0.0162432
-0.00107228
-0.0176671
-0.0310316
-0.0392151
-0.041399
-0.0382813
-0.0315359
-0.022775
-0.0130842
-0.00316787
0.00634502
0.0149044
0.0222836
0.0286271
0.0342439
0.0393401
0.0438767
0.0477634
0.0509628
0.0533816
0.0549711
0.0559039
0.0564723
0.0568019
0.0568019
0.0564723
0.0559041
0.0549716
0.0533825
0.0509641
0.047765
0.0438786
0.0393424
0.0342466
0.0286299
0.0222861
0.0149065
0.00634657
-0.00316687
-0.0130835
-0.0227743
-0.0315349
-0.03828
-0.0413973
-0.0392132
-0.0310294
-0.0176647
-0.00106995
0.0162451
0.0317428
0.0433969
0.0501235
0.0521631
0.0512044
0.0498578
0.0505686
0.0543989
0.0605744
0.0673397
0.0734487
0.0789302
0.0845863
0.090434
0.0946615
0.0944136
0.087688
0.07477
0.0581162
0.0409916
0.0259794
0.0144511
0.00673095
0.00240753
0.000505615
0.00218973
0.0074294
0.0149742
0.0256191
0.0394394
0.0556515
0.0724834
0.0872522
0.0970156
0.0999207
0.0962303
0.0882367
0.0789313
0.0703347
0.0628008
0.0559219
0.0498203
0.0455302
0.0443768
0.0466914
0.0510215
0.0545256
0.0541534
0.047862
0.0353641
0.0180966
-0.00130555
-0.0197561
-0.0344904
-0.0435771
-0.0463488
-0.0436408
-0.0370713
-0.0280052
-0.0174099
-0.00623678
0.00450787
0.0141401
0.0225122
0.0298058
0.036366
0.042595
0.048635
0.0543023
0.0593215
0.0635259
0.0669148
0.0695369
0.0713832
0.0723699
0.0723697
0.0713827
0.0695363
0.0669142
0.0635256
0.0593217
0.0543031
0.0486363
0.0425967
0.036368
0.0298078
0.0225141
0.0141418
0.00450934
-0.00623564
-0.017409
-0.0280042
-0.03707
-0.0436391
-0.0463467
-0.0435748
-0.0344878
-0.0197534
-0.00130311
0.0180986
0.0353654
0.0478624
0.0541532
0.054525
0.0510209
0.0466907
0.0443761
0.0455292
0.0498192
0.0559209
0.0627999
0.0703337
0.0789302
0.0882355
0.0962293
0.0999199
0.097015
0.0872515
0.0724822
0.0556498
0.0394377
0.0256177
0.0149734
0.00742912
0.00218967
0.00354617
0.0114445
0.0214912
0.0343468
0.0498316
0.0667817
0.0830831
0.0959909
0.102912
0.102605
0.0958584
0.0851558
0.0734499
0.0628008
0.0538649
0.0466556
0.0415092
0.0393159
0.0410263
0.0465672
0.0541215
0.0604861
0.0622281
0.0570006
0.0444616
0.0263224
0.00568278
-0.0140151
-0.0299221
-0.040183
-0.0441792
-0.0426699
-0.0370396
-0.0283729
-0.0175817
-0.00589709
0.00534873
0.0154144
0.0242528
0.0320255
0.0389986
0.0456598
0.0523314
0.058867
0.0649042
0.0702493
0.0748944
0.0787238
0.0814643
0.082893
0.0828929
0.0814639
0.078723
0.0748935
0.0702486
0.064904
0.0588674
0.0523323
0.0456609
0.0389996
0.0320262
0.0242533
0.0154149
0.00534931
-0.00589648
-0.0175811
-0.028372
-0.0370382
-0.042668
-0.0441767
-0.0401802
-0.0299191
-0.0140121
0.00568545
0.0263246
0.0444631
0.0570012
0.0622281
0.0604857
0.0541212
0.046567
0.0410261
0.0393156
0.0415088
0.0466551
0.0538643
0.0627999
0.0734487
0.0851544
0.0958571
0.102604
0.102911
0.0959901
0.0830818
0.0667801
0.0498299
0.0343456
0.0214908
0.0114446
0.00354625
0.00430228
0.0136473
0.0249781
0.0388875
0.0550531
0.0720493
0.0875063
0.0986607
0.103269
0.10066
0.0920638
0.0800377
0.0673412
0.0559219
0.0466556
0.0399734
0.036462
0.0369064
0.0419016
0.0509792
0.0619723
0.0713591
0.0754148
0.0715912
0.0595157
0.0410663
0.0196046
-0.00126381
-0.0186808
-0.0307922
-0.0368405
-0.0372857
-0.0331479
-0.025262
-0.0145779
-0.00262688
0.00899128
0.0195002
0.0288661
0.0370742
0.0441528
0.0505689
0.0568424
0.0630078
0.0687816
0.0740238
0.0787345
0.0826913
0.0854904
0.0869054
0.0869053
0.0854903
0.082691
0.0787341
0.0740234
0.0687815
0.063008
0.0568429
0.0505693
0.0441526
0.0370734
0.0288649
0.019499
0.0089905
-0.00262715
-0.0145776
-0.0252612
-0.0331463
-0.0372834
-0.0368375
-0.0307888
-0.0186772
-0.00126044
0.0196075
0.0410685
0.0595171
0.0715918
0.0754148
0.0713589
0.0619721
0.0509791
0.0419016
0.0369064
0.0364619
0.0399732
0.0466551
0.0559209
0.0673397
0.0800359
0.0920622
0.100659
0.103269
0.09866
0.0875051
0.0720478
0.0550517
0.0388868
0.0249781
0.0136477
0.00430251
0.00447539
0.0140754
0.0254554
0.0392047
0.0549965
0.0712982
0.0855853
0.0951065
0.0979516
0.0939614
0.0847253
0.0727795
0.060576
0.0498203
0.0415092
0.036462
0.0355367
0.0394235
0.0483188
0.0613012
0.075851
0.0882076
0.0944989
0.0921198
0.0807016
0.0621524
0.0398616
0.0174347
-0.00223531
-0.0171239
-0.0261343
-0.0292741
-0.0271446
-0.0203798
-0.0100253
0.00210391
0.0141854
0.0253713
0.0355047
0.0442422
0.0512648
0.0569545
0.0620311
0.066792
0.0711373
0.0750523
0.0786095
0.0815981
0.0836378
0.084609
0.0846091
0.083638
0.0815983
0.0786096
0.0750524
0.0711373
0.0667919
0.0620309
0.056954
0.0512635
0.0442401
0.0355021
0.0253687
0.0141835
0.00210295
-0.0100252
-0.0203787
-0.0271426
-0.0292713
-0.026131
-0.0171201
-0.00223145
0.0174382
0.0398644
0.0621543
0.0807025
0.09212
0.0944985
0.088207
0.0758505
0.0613009
0.0483187
0.0394234
0.0355367
0.0364619
0.0415087
0.0498192
0.0605744
0.0727777
0.0847237
0.0939604
0.0979511
0.095106
0.0855844
0.071297
0.0549955
0.0392044
0.0254559
0.0140762
0.00447576
0.0044093
0.0137208
0.0244611
0.0372515
0.0519061
0.0669629
0.0798553
0.0878598
0.0893637
0.0846742
0.0756984
0.0649121
0.0544005
0.0455302
0.0393159
0.0369064
0.0394235
0.0474471
0.0606954
0.0777015
0.0956006
0.110534
0.118683
0.117545
0.106777
0.0881753
0.0649428
0.0405621
0.0180196
-0.000336609
-0.0129593
-0.0193725
-0.0197777
-0.0146357
-0.00507392
0.00686805
0.019179
0.0308938
0.0416536
0.0507578
0.0575506
0.0623105
0.0659119
0.0688889
0.0713256
0.0733521
0.0751717
0.0766891
0.0776367
0.078014
0.0780141
0.0776369
0.0766894
0.075172
0.0733523
0.0713255
0.0688884
0.065911
0.062309
0.0575484
0.050755
0.0416505
0.0308909
0.0191768
0.00686701
-0.00507359
-0.0146341
-0.0197751
-0.0193693
-0.0129558
-0.000332947
0.0180231
0.0405651
0.0649449
0.0881764
0.106777
0.117544
0.118682
0.110533
0.0955997
0.0777009
0.0606949
0.0474469
0.0394234
0.0369064
0.0393156
0.0455292
0.0543989
0.0649103
0.0756971
0.0846736
0.0893636
0.0878597
0.0798547
0.0669621
0.0519056
0.0372518
0.0244622
0.013722
0.00440982
0.00453943
0.0138562
0.0240128
0.0356544
0.0488533
0.0623934
0.0737984
0.0804029
0.0808492
0.0758653
0.0676613
0.0586586
0.05057
0.0443768
0.0410263
0.0419016
0.0483188
0.0606954
0.078202
0.0987782
0.119288
0.135986
0.145342
0.14509
0.134902
0.116344
0.0922786
0.0659848
0.0405591
0.0187064
0.00238835
-0.0075244
-0.0109024
-0.00803144
-4.38271e-05
0.0108958
0.0226381
0.0341041
0.0447765
0.0537219
0.060062
0.0639699
0.0663707
0.0679161
0.0687887
0.0692237
0.0695669
0.069878
0.0699971
0.0699589
0.0699588
0.0699971
0.069878
0.069567
0.0692236
0.0687882
0.067915
0.066369
0.0639676
0.0600594
0.0537192
0.0447739
0.0341018
0.0226365
0.0108953
-4.30208e-05
-0.00802936
-0.0108995
-0.00752102
0.00239167
0.0187094
0.0405616
0.0659866
0.0922795
0.116344
0.134901
0.145088
0.145341
0.135985
0.119287
0.0987773
0.0782013
0.0606949
0.0483187
0.0419016
0.0410261
0.0443761
0.0505686
0.0586571
0.0676604
0.0758653
0.0808497
0.0804033
0.0737984
0.0623931
0.0488534
0.0356553
0.0240145
0.0138578
0.00454011
0.0051482
0.0153174
0.0254619
0.0362054
0.0479529
0.0598861
0.0697671
0.0750487
0.0745953
0.0694988
0.0622524
0.0552472
0.0498589
0.0466914
0.0465672
0.0509792
0.0613012
0.0777015
0.0987782
0.121922
0.143883
0.161277
0.171085
0.171365
0.161772
0.143537
0.119097
0.0914768
0.0638243
0.0391037
0.0195489
0.00628595
-0.000304819
-0.000322165
0.00519385
0.0140816
0.0241458
0.034268
0.0439095
0.0520991
0.0578639
0.0612399
0.0630596
0.0639405
0.0640553
0.0636783
0.0632705
0.0630328
0.0628621
0.0627236
0.0627234
0.0628618
0.0630325
0.0632704
0.0636779
0.0640545
0.063939
0.0630574
0.0612372
0.0578612
0.0520969
0.0439079
0.034267
0.0241454
0.014082
0.00519521
-0.000319785
-0.000301719
0.00628922
0.0195518
0.0391057
0.0638254
0.0914771
0.119097
0.143535
0.16177
0.171363
0.171082
0.161275
0.143882
0.121921
0.0987773
0.0777009
0.061301
0.0509791
0.046567
0.0466908
0.0498578
0.0552461
0.062252
0.0694993
0.0745963
0.0750496
0.0697676
0.0598864
0.0479536
0.036207
0.0254641
0.0153194
0.00514902
0.00627738
0.0182345
0.0290344
0.0392266
0.0496063
0.0598842
0.0681952
0.0721665
0.0708413
0.0655989
0.0591889
0.0540184
0.0512053
0.0510215
0.0541215
0.0619723
0.075851
0.0956006
0.119288
0.143883
0.1662
0.183403
0.193128
0.193803
0.185007
0.167566
0.143445
0.115361
0.0864215
0.0597009
0.0375626
0.0212882
0.0114524
0.00814005
0.0104801
0.0164512
0.023943
0.0319079
0.0399181
0.0471018
0.0524419
0.0557611
0.0576588
0.0586023
0.0586818
0.0581611
0.0575842
0.0572737
0.0571606
0.0571091
0.057109
0.0571604
0.0572734
0.057584
0.0581606
0.0586808
0.0586006
0.0576564
0.0557584
0.0524393
0.0471
0.0399173
0.031908
0.0239438
0.0164525
0.010482
0.00814261
0.0114554
0.0212911
0.0375649
0.0597021
0.0864216
0.11536
0.143443
0.167564
0.185005
0.1938
0.193125
0.183401
0.166198
0.143882
0.119287
0.0955997
0.0758505
0.0619721
0.0541212
0.0510209
0.0512044
0.0540178
0.0591891
0.0656
0.0708429
0.072168
0.0681964
0.0598852
0.0496078
0.0392289
0.0290372
0.0182369
0.0062783
0.00779314
0.0222221
0.0341357
0.0439748
0.052995
0.0615551
0.0682529
0.0708899
0.0685962
0.0629308
0.0568774
0.0529543
0.0521636
0.0545256
0.0604861
0.0713591
0.0882076
0.110534
0.135986
0.161277
0.183403
0.200129
0.20975
0.211042
0.203459
0.187363
0.164218
0.136417
0.10696
0.0789337
0.0547548
0.0358228
0.0228687
0.0161352
0.0149715
0.0176355
0.0222468
0.0279117
0.0343456
0.0407752
0.0460948
0.0498321
0.0522748
0.0536958
0.0540812
0.0536621
0.0530445
0.0526726
0.052552
0.0525229
0.0525229
0.052552
0.0526727
0.0530445
0.0536616
0.0540802
0.0536942
0.0522726
0.0498296
0.0460926
0.0407737
0.0343454
0.0279127
0.0222487
0.017638
0.0149742
0.016138
0.0228715
0.0358254
0.0547566
0.0789343
0.106959
0.136415
0.164215
0.18736
0.203455
0.211039
0.209747
0.200126
0.183401
0.161275
0.135985
0.110533
0.088207
0.0713589
0.0604857
0.0545251
0.0521631
0.0529543
0.0568783
0.0629325
0.0685982
0.0708918
0.0682545
0.0615567
0.0529972
0.0439777
0.0341389
0.0222248
0.00779415
0.00949234
0.0267066
0.039911
0.0494266
0.0570364
0.0638366
0.0689207
0.0701989
0.0667423
0.0601507
0.0536198
0.0499131
0.0501236
0.0541534
0.0622281
0.0754148
0.0944989
0.118683
0.145342
0.171085
0.193128
0.20975
0.219781
0.222251
0.216423
0.202159
0.180423
0.153338
0.123833
0.0949893
0.069242
0.0480686
0.0323
0.0222992
0.0176823
0.0171198
0.0190835
0.0228522
0.0282022
0.0343521
0.0400369
0.044475
0.0476618
0.0496925
0.0504485
0.0501092
0.049318
0.0486372
0.0482118
0.0479959
0.0479961
0.0482122
0.0486375
0.049318
0.0501087
0.0504474
0.0496909
0.0476599
0.0444731
0.0400353
0.0343512
0.0282026
0.0228539
0.0190864
0.0171233
0.017686
0.0223025
0.0323027
0.0480706
0.0692431
0.0949893
0.123832
0.153335
0.180419
0.202155
0.21642
0.222248
0.219778
0.209747
0.193125
0.171082
0.145341
0.118682
0.0944985
0.0754148
0.0622281
0.0541532
0.0501236
0.0499136
0.0536212
0.0601528
0.0667445
0.070201
0.0689225
0.0638385
0.057039
0.04943
0.0399146
0.0267094
0.00949341
0.011164
0.0311103
0.0455518
0.0546924
0.0608679
0.0659363
0.0694642
0.0693719
0.0645134
0.0563819
0.0483485
0.0435488
0.0433964
0.047862
0.0570006
0.0715912
0.0921198
0.117545
0.14509
0.171365
0.193803
0.211042
0.222251
0.226561
0.222973
0.210843
0.19071
0.164565
0.135386
0.106272
0.0796099
0.0568509
0.0388305
0.0259953
0.018271
0.0148315
0.0145624
0.0168786
0.0215046
0.0275562
0.0336146
0.0386884
0.042584
0.045255
0.0464572
0.0462801
0.0453546
0.0443124
0.0434463
0.0429219
0.0429221
0.0434467
0.0443127
0.0453543
0.0462792
0.0464557
0.0452533
0.0425825
0.0386872
0.033614
0.0275565
0.0215059
0.0168811
0.014566
0.0148358
0.0182754
0.025999
0.0388331
0.0568522
0.0796101
0.106271
0.135384
0.164562
0.190706
0.210838
0.222969
0.226557
0.222248
0.211039
0.1938
0.171363
0.145088
0.117544
0.09212
0.0715918
0.0570013
0.0478625
0.043397
0.0435499
0.0483503
0.0563841
0.0645156
0.0693738
0.0694659
0.0659384
0.0608706
0.0546959
0.0455555
0.0311132
0.0111651
0.012644
0.0349903
0.0504588
0.0591495
0.0639252
0.0673607
0.0694315
0.067974
0.0614962
0.0512611
0.0407715
0.0336221
0.0317416
0.0353641
0.0444616
0.0595157
0.0807016
0.106777
0.134902
0.161772
0.185007
0.203459
0.216423
0.222973
0.221808
0.211861
0.193407
0.168476
0.140205
0.111683
0.0851075
0.0617389
0.042315
0.0273468
0.0170848
0.011203
0.00897297
0.00989774
0.013609
0.0191433
0.0250586
0.0303477
0.0347642
0.0381315
0.0400256
0.0403901
0.0397718
0.0387633
0.0377122
0.0369867
0.0369868
0.0377123
0.0387629
0.0397709
0.0403886
0.0400238
0.0381298
0.0347631
0.0303476
0.0250594
0.019145
0.0136115
0.00990114
0.00897717
0.0112078
0.0170894
0.0273506
0.0423172
0.0617393
0.0851065
0.111681
0.140202
0.168473
0.193402
0.211856
0.221803
0.222969
0.21642
0.203455
0.185005
0.16177
0.134901
0.106777
0.0807026
0.0595171
0.0444631
0.0353654
0.0317429
0.0336237
0.0407734
0.0512631
0.061498
0.0679755
0.0694329
0.0673625
0.0639279
0.0591529
0.0504623
0.034993
0.012645
0.0138546
0.038132
0.0543297
0.0624637
0.0658755
0.0677807
0.0684936
0.0656997
0.0574768
0.0447721
0.031185
0.0208181
0.0162432
0.0180966
0.0263224
0.0410663
0.0621524
0.0881753
0.116344
0.143537
0.167566
0.187363
0.202159
0.210843
0.211861
0.203924
0.187265
0.164084
0.137651
0.110899
0.0856472
0.0628166
0.042998
0.0267776
0.0146953
0.00681252
0.0026792
0.00186822
0.00399355
0.00816191
0.0131128
0.0180257
0.0227029
0.0268135
0.0296887
0.0310889
0.0314229
0.0311149
0.030405
0.0297571
0.0297569
0.0304044
0.0311137
0.0314211
0.0310869
0.0296867
0.026812
0.0227025
0.0180266
0.0131151
0.00816523
0.00399755
0.0018726
0.00268378
0.00681709
0.0146994
0.0267807
0.0429994
0.062816
0.0856449
0.110896
0.137647
0.16408
0.18726
0.203919
0.211856
0.210838
0.202155
0.18736
0.167564
0.143535
0.116344
0.0881764
0.0621543
0.0410685
0.0263246
0.0180986
0.0162451
0.0208201
0.031187
0.0447738
0.0574779
0.0657005
0.0684945
0.0677822
0.0658779
0.0624667
0.0543328
0.0381342
0.0138555
0.0147442
0.0403814
0.0569127
0.0642926
0.0662959
0.0667115
0.0661495
0.062124
0.0522442
0.0370823
0.0202923
0.00648828
-0.00107228
-0.00130555
0.00568278
0.0196046
0.0398616
0.0649428
0.0922786
0.119097
0.143445
0.164218
0.180423
0.19071
0.193407
0.187265
0.172683
0.152024
0.128504
0.10468
0.0818474
0.0605536
0.0412812
0.0247118
0.0115763
0.00213235
-0.003923
-0.006913
-0.00708502
-0.00507928
-0.00181345
0.00219123
0.00681653
0.0115428
0.0154374
0.0181045
0.0198198
0.0207483
0.0208591
0.0205656
0.0205651
0.0208578
0.0207463
0.0198174
0.0181023
0.0154357
0.011542
0.00681694
0.00219318
-0.00180995
-0.00507463
-0.00707982
-0.00690786
-0.00391832
0.0021363
0.0115793
0.0247135
0.0412813
0.060552
0.0818441
0.104676
0.128499
0.152019
0.172678
0.18726
0.193402
0.190706
0.180419
0.164215
0.143443
0.119097
0.0922795
0.0649449
0.0398644
0.0196075
0.00568547
-0.00130308
-0.00106993
0.00649052
0.0202942
0.0370835
0.0522448
0.0621242
0.0661499
0.0667126
0.0662978
0.064295
0.0569151
0.0403831
0.0147448
0.0152307
0.0415063
0.0578566
0.0641992
0.06469
0.0636279
0.061905
0.0568987
0.0457663
0.0286628
0.00921956
-0.00751668
-0.0176671
-0.0197561
-0.0140151
-0.00126381
0.0174347
0.0405621
0.0659848
0.0914768
0.115361
0.136417
0.153338
0.164565
0.168476
0.164084
0.152024
0.134656
0.11487
0.0946798
0.0748715
0.0557395
0.0377556
0.0216757
0.00825731
-0.00225807
-0.010124
-0.0154833
-0.0182916
-0.0188276
-0.0176303
-0.0149259
-0.0107671
-0.00585332
-0.00131886
0.0023813
0.00545085
0.007764
0.00890729
0.00911521
0.00911454
0.00890544
0.00776146
0.00544829
0.00237934
-0.00131985
-0.00585315
-0.0107657
-0.0149229
-0.0176259
-0.0188221
-0.0182857
-0.0154778
-0.0101195
-0.00225503
0.0082588
0.0216757
0.0377541
0.0557367
0.0748674
0.0946747
0.114865
0.134651
0.152019
0.16408
0.168473
0.164562
0.153335
0.136415
0.11536
0.0914771
0.0659866
0.0405651
0.0174382
-0.00126043
-0.0140121
-0.0197534
-0.0176647
-0.00751447
0.00922123
0.0286637
0.0457664
0.0568983
0.0619049
0.0636285
0.0646913
0.0642008
0.0578581
0.0415073
0.0152311
0.0152259
0.0412748
0.0568667
0.0619121
0.0608685
0.0584501
0.0558117
0.0502632
0.0385836
0.0204962
-0.000508045
-0.019125
-0.0310316
-0.0344904
-0.0299221
-0.0186808
-0.00223531
0.0180196
0.0405591
0.0638243
0.0864215
0.10696
0.123833
0.135386
0.140205
0.137651
0.128504
0.11487
0.0990914
0.0826254
0.0659367
0.0492778
0.0331875
0.0183945
0.00547665
-0.00551787
-0.0148353
-0.0223621
-0.0276875
-0.0307383
-0.0317429
-0.0306881
-0.0275527
-0.023131
-0.018633
-0.0144607
-0.0104211
-0.00692458
-0.00480991
-0.00409836
-0.00409909
-0.00481188
-0.00692717
-0.0104235
-0.0144621
-0.0186331
-0.0231297
-0.02755
-0.0306841
-0.0317378
-0.0307325
-0.0276817
-0.0223569
-0.0148315
-0.0055159
0.00547658
0.0183926
0.0331842
0.0492736
0.0659318
0.0826199
0.0990857
0.114865
0.128499
0.137647
0.140202
0.135384
0.123832