/*--------------------------------*- C++ -*----------------------------------*\
  =========                 |
  \\      /  F ield         | OpenFOAM: The Open Source CFD Toolbox
   \\    /   O peration     | Website:  https://openfoam.org
    \\  /    A nd           | Version:  10
     \\/     M anipulation  |
\*---------------------------------------------------------------------------*/
FoamFile
{
    format      ascii;
    class       volScalarField;
    location    "14";
    object      h_0;
}
// * * * * * * * * * * * * * * * * * * * * * * * * * * * * * * * * * * * * * //

dimensions      [0 1 0 0 0 0 0];

internalField   nonuniform List<scalar> 
10000
(
5.3836e-11
2.75042e-10
1.04582e-09
3.75498e-09
1.28754e-08
4.21498e-08
1.31613e-07
3.91594e-07
1.10915e-06
2.98787e-06
7.64842e-06
1.85903e-05
4.2877e-05
9.37919e-05
0.000194526
0.000382495
0.000713172
0.00126153
0.00211879
0.00338267
0.00514089
0.00745007
0.0103142
0.0136681
0.0173696
0.0212035
0.0248957
0.0281372
0.0306128
0.0320336
0.0321684
0.0308715
0.0281018
0.0239308
0.0185355
0.0121784
0.00517795
-0.00212735
-0.00941237
-0.0163935
-0.0228475
-0.0286197
-0.0336232
-0.0378308
-0.0412615
-0.0439664
-0.0460128
-0.0474714
-0.0484048
-0.0488593
-0.0488594
-0.0484051
-0.047472
-0.0460136
-0.0439673
-0.0412625
-0.0378317
-0.0336241
-0.0286204
-0.0228479
-0.0163936
-0.00941205
-0.00212658
0.00517917
0.0121801
0.0185374
0.023933
0.0281041
0.0308737
0.0321704
0.0320353
0.0306142
0.0281381
0.0248962
0.0212036
0.0173695
0.0136677
0.0103137
0.0074495
0.00514035
0.0033822
0.00211841
0.00126125
0.000712978
0.00038237
0.00019445
9.37494e-05
4.28545e-05
1.85791e-05
7.64318e-06
2.98556e-06
1.10819e-06
3.91215e-07
1.31471e-07
4.20998e-08
1.28586e-08
3.74963e-09
1.04419e-09
2.74579e-10
5.3739e-11
2.75042e-10
1.38786e-09
5.18888e-09
1.8298e-08
6.15848e-08
1.9778e-07
6.05492e-07
1.76529e-06
4.89641e-06
1.2909e-05
3.23214e-05
7.6796e-05
0.000173049
0.000369645
0.00074831
0.00143571
0.00261138
0.00450577
0.00738215
0.0114996
0.0170593
0.024145
0.0326696
0.0423434
0.052671
0.06298
0.0724747
0.08031
0.085674
0.0878751
0.0864207
0.0810799
0.0719179
0.0592942
0.0438222
0.0262978
0.00760813
-0.0113633
-0.0298185
-0.0471056
-0.0627509
-0.0764655
-0.0881296
-0.0977624
-0.105484
-0.111475
-0.115943
-0.119089
-0.121083
-0.122047
-0.122048
-0.121083
-0.11909
-0.115945
-0.111477
-0.105486
-0.0977649
-0.0881321
-0.0764677
-0.0627525
-0.0471065
-0.0298186
-0.0113622
0.00761032
0.0263011
0.0438264
0.0592992
0.0719234
0.0810855
0.086426
0.0878798
0.0856779
0.0803129
0.0724766
0.0629808
0.052671
0.0423426
0.0326684
0.0241436
0.0170578
0.0114982
0.00738103
0.0045049
0.00261076
0.00143529
0.000748052
0.000369495
0.000172967
7.6754e-05
3.23011e-05
1.28999e-05
4.89249e-06
1.76371e-06
6.04889e-07
1.97562e-07
6.15101e-08
1.82736e-08
5.18134e-09
1.38567e-09
2.74578e-10
1.04582e-09
5.18888e-09
1.89542e-08
6.51871e-08
2.13744e-07
6.68059e-07
1.9883e-06
5.62908e-06
1.51437e-05
3.8676e-05
9.36874e-05
0.000215086
0.000467694
0.000962824
0.00187624
0.00346129
0.00604773
0.0100164
0.0157444
0.0235246
0.0334758
0.0454651
0.059065
0.0735582
0.0879871
0.10124
0.112157
0.119651
0.122816
0.12104
0.114081
0.102107
0.0856899
0.0657299
0.0433508
0.0197618
-0.003874
-0.0265485
-0.0474799
-0.0661423
-0.0822592
-0.0957698
-0.106781
-0.115512
-0.122247
-0.127291
-0.130933
-0.133427
-0.134974
-0.135713
-0.135713
-0.134975
-0.133428
-0.130934
-0.127293
-0.12225
-0.115515
-0.106784
-0.095773
-0.0822622
-0.0661449
-0.0474817
-0.0265493
-0.00387357
0.0197636
0.043354
0.0657345
0.0856955
0.102114
0.114087
0.121047
0.122822
0.119656
0.112161
0.101242
0.0879882
0.0735582
0.0590641
0.0454635
0.0334739
0.0235227
0.0157426
0.0100149
0.00604657
0.00346047
0.0018757
0.000962492
0.000467503
0.000214983
9.3636e-05
3.86517e-05
1.51329e-05
5.62455e-06
1.98652e-06
6.67391e-07
2.13507e-07
6.51076e-08
1.89289e-08
5.18134e-09
1.04419e-09
3.75498e-09
1.8298e-08
6.51871e-08
2.18186e-07
6.95349e-07
2.10966e-06
6.08666e-06
1.66803e-05
4.33707e-05
0.000106881
0.000249394
0.000550536
0.00114897
0.00226596
0.00422229
0.00743486
0.0123788
0.0195077
0.0291404
0.0413401
0.0558222
0.0719235
0.0886434
0.104747
0.118899
0.129814
0.136386
0.137809
0.133679
0.124057
0.109482
0.0909156
0.0696213
0.0469921
0.0243724
0.00290455
-0.0165689
-0.0335404
-0.0478161
-0.0594552
-0.0686924
-0.0758594
-0.0813192
-0.0854186
-0.0884595
-0.0906859
-0.0922827
-0.0933821
-0.0940718
-0.0944044
-0.0944045
-0.094072
-0.0933824
-0.0922833
-0.0906866
-0.0884606
-0.0854201
-0.081321
-0.0758616
-0.068695
-0.0594581
-0.047819
-0.0335432
-0.0165711
0.00290313
0.0243721
0.0469932
0.0696238
0.0909195
0.109487
0.124063
0.133685
0.137815
0.136391
0.129819
0.118902
0.104748
0.088644
0.0719229
0.0558207
0.0413381
0.0291383
0.0195057
0.012377
0.00743351
0.00422132
0.00226532
0.00114857
0.000550314
0.000249276
0.000106822
4.33435e-05
1.66684e-05
6.08177e-06
2.10777e-06
6.94654e-07
2.17944e-07
6.51076e-08
1.82736e-08
3.74962e-09
1.28754e-08
6.15848e-08
2.13744e-07
6.95349e-07
2.15075e-06
6.32385e-06
1.76546e-05
4.67379e-05
0.000117186
0.000277947
0.000622946
0.00131802
0.00263053
0.0049498
0.00877958
0.0146823
0.0231657
0.0345267
0.0486943
0.0651308
0.0828347
0.100454
0.116475
0.129427
0.13806
0.141474
0.139213
0.131322
0.118373
0.101432
0.0819362
0.0614972
0.0416609
0.0236845
0.00838974
-0.00388315
-0.0132244
-0.020037
-0.0248934
-0.0284005
-0.0310978
-0.0333966
-0.0355591
-0.0377062
-0.0398449
-0.0419032
-0.0437654
-0.0453036
-0.0464019
-0.0469739
-0.0469737
-0.0464013
-0.0453027
-0.0437642
-0.0419017
-0.0398433
-0.0377046
-0.0355577
-0.0333956
-0.0310973
-0.0284008
-0.0248945
-0.0200388
-0.0132268
-0.00388601
0.00838689
0.0236821
0.0416594
0.0614971
0.0819376
0.101435
0.118378
0.131327
0.139218
0.141479
0.138064
0.129431
0.116478
0.100456
0.0828347
0.0651297
0.0486925
0.0345244
0.0231635
0.0146803
0.00877805
0.0049487
0.00262981
0.00131758
0.000622697
0.000277816
0.000117122
4.67086e-05
1.7642e-05
6.31877e-06
2.14882e-06
6.94654e-07
2.13507e-07
6.15101e-08
1.28586e-08
4.21498e-08
1.9778e-07
6.68059e-07
2.10966e-06
6.32385e-06
1.79909e-05
4.85128e-05
0.000123817
0.000298686
0.00068011
0.00145991
0.00295104
0.00561218
0.0100353
0.0168683
0.0266601
0.0396518
0.0555783
0.0735712
0.0922226
0.109808
0.124591
0.135099
0.140308
0.139718
0.133366
0.121823
0.106174
0.087939
0.0689028
0.0508376
0.0351973
0.0228722
0.0140862
0.00845455
0.00516728
0.00322715
0.00167352
-0.000255562
-0.00304079
-0.00687171
-0.0116884
-0.0172503
-0.0232099
-0.0291789
-0.0347784
-0.0396714
-0.0435821
-0.0463031
-0.0476974
-0.0476972
-0.0463024
-0.0435809
-0.0396698
-0.0347763
-0.0291763
-0.0232068
-0.0172468
-0.0116847
-0.00686798
-0.00303733
-0.000252698
0.00167548
0.00322795
0.00516681
0.00845288
0.0140836
0.0228692
0.0351945
0.0508356
0.068902
0.0879398
0.106176
0.121827
0.13337
0.139723
0.140313
0.135104
0.124595
0.109811
0.0922235
0.0735707
0.0555768
0.0396496
0.0266579
0.0168662
0.0100336
0.00561096
0.00295024
0.00145943
0.00067984
0.000298546
0.000123749
4.84825e-05
1.79781e-05
6.31877e-06
2.10777e-06
6.67391e-07
1.97562e-07
4.20997e-08
1.31613e-07
6.05492e-07
1.9883e-06
6.08666e-06
1.76546e-05
4.85128e-05
0.000126107
0.000309614
0.00071682
0.00156257
0.00320239
0.00616241
0.0111226
0.0188156
0.0298249
0.0443126
0.0617772
0.080966
0.100032
0.116908
0.129747
0.137266
0.138865
0.134576
0.124949
0.110963
0.0940008
0.0757795
0.0581597
0.0428133
0.030856
0.0226007
0.0175428
0.0145747
0.0123317
0.0095422
0.00528164
-0.000913385
-0.00905897
-0.0188242
-0.0296675
-0.0409681
-0.0521284
-0.0626377
-0.0721003
-0.0802371
-0.086869
-0.0918936
-0.0952596
-0.096946
-0.096946
-0.0952597
-0.0918936
-0.086869
-0.0802369
-0.0720997
-0.0626366
-0.0521268
-0.0409657
-0.0296644
-0.0188204
-0.0090547
-0.000908969
0.00528577
0.00954557
0.0123338
0.0145754
0.0175421
0.0225988
0.0308535
0.0428109
0.058158
0.075779
0.0940017
0.110965
0.124952
0.134581
0.138869
0.137271
0.129751
0.116911
0.100034
0.0809662
0.061776
0.0443106
0.0298225
0.0188134
0.0111208
0.00616111
0.00320153
0.00156205
0.000716537
0.00030947
0.000126039
4.84825e-05
1.7642e-05
6.08177e-06
1.98652e-06
6.04889e-07
1.31471e-07
3.91594e-07
1.76529e-06
5.62908e-06
1.66803e-05
4.67379e-05
0.000123817
0.000309614
0.000729481
0.00161648
0.00336288
0.00655691
0.0119637
0.0204013
0.0324873
0.048297
0.0670689
0.0871367
0.106209
0.121933
0.132505
0.137027
0.135491
0.128498
0.11696
0.101972
0.0848604
0.0672205
0.0507676
0.0369471
0.0264835
0.0191272
0.0137618
0.00881757
0.00279086
-0.00534346
-0.0159429
-0.0287348
-0.0430056
-0.0578438
-0.0723568
-0.0858189
-0.0977397
-0.107869
-0.11616
-0.12271
-0.127703
-0.131357
-0.133884
-0.135462
-0.136219
-0.136219
-0.135463
-0.133885
-0.131359
-0.127705
-0.122713
-0.116163
-0.107872
-0.0977417
-0.0858202
-0.0723573
-0.0578431
-0.0430037
-0.0287318
-0.0159392
-0.00533947
0.00279448
0.00882021
0.0137631
0.0191271
0.0264823
0.0369455
0.0507662
0.0672199
0.0848607
0.101974
0.116962
0.128501
0.135495
0.137031
0.132509
0.121937
0.106211
0.0871374
0.0670681
0.0482951
0.0324849
0.0203991
0.0119618
0.00655554
0.00336199
0.00161595
0.000729193
0.00030947
0.000123749
4.67086e-05
1.66684e-05
5.62455e-06
1.76371e-06
3.91214e-07
1.10915e-06
4.89641e-06
1.51437e-05
4.33707e-05
0.000117186
0.000298686
0.00071682
0.00161648
0.00341806
0.00676291
0.0124957
0.0215212
0.0344999
0.0514301
0.0712915
0.0919985
0.110825
0.125202
0.133509
0.135407
0.131574
0.12309
0.110935
0.0959099
0.078916
0.0612314
0.0444381
0.0299225
0.0182478
0.00884554
0.000265771
-0.00916081
-0.0206314
-0.0344763
-0.050156
-0.0665506
-0.0823583
-0.0964421
-0.108038
-0.116817
-0.122833
-0.126414
-0.128042
-0.128247
-0.127533
-0.126336
-0.125004
-0.123798
-0.122901
-0.122425
-0.122425
-0.122901
-0.123799
-0.125005
-0.126338
-0.127536
-0.12825
-0.128046
-0.126418
-0.122837
-0.116822
-0.108042
-0.0964454
-0.0823604
-0.0665512
-0.050155
-0.034474
-0.0206285
-0.00915793
0.00026791
0.00884658
0.0182478
0.029922
0.0444377
0.0612315
0.0789167
0.0959112
0.110937
0.123093
0.131577
0.135411
0.133513
0.125206
0.110828
0.0919997
0.071291
0.0514283
0.0344976
0.0215189
0.0124937
0.00676152
0.00341716
0.00161595
0.000716537
0.000298546
0.000117122
4.33435e-05
1.51329e-05
4.89249e-06
1.10819e-06
2.98787e-06
1.2909e-05
3.8676e-05
0.000106881
0.000277947
0.00068011
0.00156257
0.00336288
0.00676291
0.0126777
0.0221006
0.0357526
0.0535849
0.0743489
0.0955567
0.114063
0.127131
0.133422
0.133273
0.128064
0.119159
0.107224
0.0923521
0.0747801
0.0555245
0.0363609
0.0190657
0.00444038
-0.0081356
-0.0202658
-0.033531
-0.0486058
-0.0649767
-0.0812607
-0.0958102
-0.107275
-0.114926
-0.118705
-0.119085
-0.116842
-0.112849
-0.107907
-0.102671
-0.0976155
-0.0930513
-0.0891582
-0.0860241
-0.0836793
-0.0821247
-0.0813511
-0.0813511
-0.0821247
-0.0836793
-0.0860241
-0.0891584
-0.0930517
-0.0976164
-0.102672
-0.107909
-0.112851
-0.116846
-0.119089
-0.11871
-0.114931
-0.10728
-0.0958141
-0.0812631
-0.0649774
-0.048605
-0.0335294
-0.0202642
-0.0081347
0.00444059
0.0190657
0.0363613
0.0555256
0.0747818
0.092354
0.107226
0.119161
0.128067
0.133277
0.133426
0.127135
0.114067
0.0955584
0.0743487
0.0535833
0.0357502
0.0220982
0.0126757
0.00676152
0.00336199
0.00156205
0.00067984
0.000277816
0.000106822
3.86517e-05
1.28999e-05
2.98555e-06
7.64842e-06
3.23214e-05
9.36874e-05
0.000249394
0.000622946
0.00145991
0.00320239
0.00655691
0.0124957
0.0221006
0.0361777
0.0546815
0.0761944
0.0978691
0.116154
0.128145
0.132821
0.131238
0.125432
0.116827
0.105397
0.0902139
0.0708217
0.0483061
0.0251911
0.00418257
-0.0133678
-0.0281118
-0.0419537
-0.0565168
-0.0720066
-0.0871615
-0.100052
-0.109024
-0.113294
-0.11305
-0.109195
-0.102956
-0.0955333
-0.0878882
-0.0806676
-0.0742274
-0.0687047
-0.0641003
-0.0603475
-0.0573598
-0.0550572
-0.0533775
-0.0522785
-0.0517348
-0.0517347
-0.0522785
-0.0533774
-0.055057
-0.0573596
-0.0603473
-0.0641
-0.0687045
-0.0742274
-0.0806679
-0.0878891
-0.095535
-0.102959
-0.109199
-0.113055
-0.1133
-0.10903
-0.100056
-0.0871646
-0.0720079
-0.0565169
-0.0419535
-0.028112
-0.0133685
0.004182
0.0251915
0.048308
0.0708246
0.0902168
0.1054
0.116829
0.125434
0.131241
0.132825
0.128149
0.116157
0.097871
0.0761943
0.05468
0.0361754
0.0220982
0.0124937
0.00655554
0.00320153
0.00145943
0.000622697
0.000249276
9.3636e-05
3.23011e-05
7.64317e-06
1.85903e-05
7.6796e-05
0.000215086
0.000550536
0.00131802
0.00295104
0.00616241
0.0119637
0.0215212
0.0357526
0.0546815
0.0768108
0.0990035
0.117309
0.128607
0.132133
0.129633
0.123746
0.115773
0.104723
0.0884779
0.0660637
0.0391302
0.0115237
-0.01275
-0.0317799
-0.046574
-0.0597812
-0.0733652
-0.0871389
-0.0991285
-0.10708
-0.109749
-0.107292
-0.100923
-0.0922811
-0.0828529
-0.0736752
-0.0652927
-0.0578689
-0.0513494
-0.0456031
-0.0405081
-0.0359916
-0.0320328
-0.0286481
-0.0258743
-0.0237517
-0.0223159
-0.0215917
-0.0215917
-0.0223159
-0.0237517
-0.0258742
-0.0286482
-0.0320328
-0.0359917
-0.0405081
-0.0456031
-0.0513494
-0.0578689
-0.0652928
-0.0736757
-0.0828541
-0.0922834
-0.100927
-0.107297
-0.109755
-0.107085
-0.0991328
-0.0871416
-0.0733666
-0.0597821
-0.0465754
-0.031782
-0.0127519
0.0115233
0.0391321
0.0660674
0.0884821
0.104726
0.115775
0.123747
0.129635
0.132137
0.128611
0.117312
0.0990056
0.0768108
0.05468
0.0357502
0.0215189
0.0119618
0.00616111
0.00295024
0.00131758
0.000550314
0.000214983
7.67539e-05
1.85791e-05
4.2877e-05
0.000173049
0.000467694
0.00114897
0.00263053
0.00561218
0.0111226
0.0204013
0.0344999
0.0535849
0.0761944
0.0990035
0.117676
0.128773
0.131629
0.128575
0.122825
0.11551
0.104553
0.0866173
0.0604673
0.0288
-0.00283601
-0.0291024
-0.0478311
-0.0608681
-0.0720419
-0.0838049
-0.0954039
-0.103932
-0.106853
-0.103622
-0.0955363
-0.0846836
-0.0729846
-0.0616705
-0.0512439
-0.0417414
-0.0330197
-0.0249491
-0.0174991
-0.0107264
-0.00472426
0.000422642
0.00467604
0.00804796
0.0105955
0.0123997
0.0135448
0.0140987
0.0140989
0.0135454
0.0124006
0.0105967
0.00804933
0.00467751
0.000424094
-0.00472293
-0.0107252
-0.0174982
-0.0249484
-0.0330192
-0.0417411
-0.0512438
-0.0616708
-0.0729856
-0.0846859
-0.0955401
-0.103627
-0.106858
-0.103937
-0.0954075
-0.0838068
-0.0720432
-0.0608702
-0.0478345
-0.0291059
-0.00283774
0.0288013
0.0604714
0.0866224
0.104557
0.115512
0.122826
0.128577
0.131632
0.128777
0.11768
0.0990056
0.0761943
0.0535833
0.0344976
0.0203991
0.0111208
0.00561096
0.00262981
0.00114857
0.000467503
0.000172967
4.28544e-05
9.37919e-05
0.000369645
0.000962824
0.00226596
0.0049498
0.0100353
0.0188156
0.0324873
0.0514301
0.0743489
0.0978691
0.117309
0.128773
0.131447
0.12806
0.12241
0.115589
0.104509
0.084653
0.0547075
0.0187188
-0.0159695
-0.0429716
-0.0602797
-0.0708495
-0.0797639
-0.089816
-0.0993322
-0.104188
-0.101671
-0.0923785
-0.0790605
-0.0645245
-0.050577
-0.037954
-0.0266914
-0.0166541
-0.0078394
-0.000392131
0.00548412
0.00964508
0.0121011
0.0130197
0.0126996
0.0115152
0.00985194
0.008071
0.00647005
0.00527814
0.00464472
0.00464492
0.00527875
0.0064711
0.00807252
0.00985396
0.0115177
0.0127026
0.0130231
0.0121047
0.00964873
0.00548759
-0.000389028
-0.00783678
-0.016652
-0.0266898
-0.0379528
-0.0505764
-0.0645251
-0.0790628
-0.0923828
-0.101677
-0.104194
-0.0993367
-0.0898182
-0.0797653
-0.0708519
-0.0602839
-0.0429765
-0.0159727
0.0187193
0.0547116
0.0846588
0.104514
0.115592
0.122412
0.128061
0.13145
0.128777
0.117312
0.097871
0.0743487
0.0514283
0.0324849
0.0188134
0.0100336
0.0049487
0.00226532
0.000962492
0.000369495
9.37492e-05
0.000194526
0.00074831
0.00187624
0.00422229
0.00877958
0.0168683
0.0298249
0.048297
0.0712915
0.0955567
0.116154
0.128607
0.131629
0.12806
0.122298
0.115704
0.104471
0.0829561
0.0497331
0.0102187
-0.0265795
-0.0536448
-0.0694209
-0.0777632
-0.0845897
-0.0928036
-0.099739
-0.100124
-0.0914773
-0.0761801
-0.0588307
-0.0427283
-0.0290566
-0.0179087
-0.00907848
-0.00251914
0.00152738
0.00283772
0.00144802
-0.0023103
-0.00783968
-0.0144091
-0.0213239
-0.0279879
-0.0339859
-0.0390622
-0.0431008
-0.0460822
-0.0480327
-0.048995
-0.0489951
-0.0480331
-0.0460829
-0.0431016
-0.039063
-0.0339865
-0.027988
-0.0213233
-0.0144076
-0.00783727
-0.00230699
0.00145204
0.00284212
0.00153182
-0.00251497
-0.00907473
-0.0179054
-0.0290538
-0.0427265
-0.0588305
-0.0761826
-0.0914826
-0.100131
-0.0997443
-0.0928065
-0.0845912
-0.0777657
-0.0694255
-0.0536505
-0.0265838
0.0102182
0.0497369
0.0829623
0.104476
0.115706
0.122299
0.128061
0.131632
0.128611
0.116157
0.0955584
0.071291
0.0482951
0.0298225
0.0168662
0.00877805
0.00422132
0.0018757
0.000748052
0.00019445
0.000382495
0.00143571
0.00346129
0.00743486
0.0146823
0.0266601
0.0443126
0.0670689
0.0919985
0.114063
0.128145
0.132133
0.128575
0.12241
0.115704
0.10445
0.0819674
0.0463881
0.00419984
-0.0341265
-0.0612431
-0.0761039
-0.0828164
-0.0873611
-0.0928127
-0.0962157
-0.091759
-0.0776128
-0.0582875
-0.0402361
-0.0266527
-0.017217
-0.0110529
-0.00792219
-0.007812
-0.0107832
-0.0165522
-0.0242338
-0.032679
-0.0407817
-0.0476447
-0.0527861
-0.0560955
-0.0577306
-0.0580701
-0.0575227
-0.0565314
-0.0554511
-0.0545748
-0.0540882
-0.0540885
-0.0545756
-0.0554525
-0.0565333
-0.0575252
-0.0580731
-0.057734
-0.0560992
-0.0527896
-0.0476478
-0.0407839
-0.0326799
-0.0242332
-0.0165502
-0.0107801
-0.00780821
-0.00791811
-0.0110488
-0.0172128
-0.0266486
-0.040233
-0.058287
-0.0776161
-0.0917649
-0.0962211
-0.092816
-0.0873632
-0.0828193
-0.0761088
-0.0612492
-0.0341315
0.00419866
0.0463916
0.0819737
0.104456
0.115706
0.122412
0.128577
0.132137
0.128149
0.114067
0.0919997
0.0670681
0.0443106
0.0266579
0.0146803
0.00743351
0.00346047
0.00143529
0.000382369
0.000713172
0.00261138
0.00604773
0.0123788
0.0231657
0.0396518
0.0617772
0.0871367
0.110825
0.127131
0.132821
0.129633
0.122825
0.115589
0.104471
0.0819674
0.0452126
0.00111211
-0.0385693
-0.0661252
-0.0809061
-0.0865547
-0.088254
-0.0896898
-0.0891657
-0.0812133
-0.0643789
-0.0446603
-0.0296993
-0.0218131
-0.0183386
-0.0171489
-0.0184884
-0.0224702
-0.0284073
-0.035252
-0.041406
-0.0454344
-0.0466669
-0.0450411
-0.0409997
-0.0353807
-0.0289578
-0.0224818
-0.0164873
-0.0112997
-0.00712615
-0.0040007
-0.00194908
-0.000927946
-0.000927835
-0.00194877
-0.00400026
-0.0071257
-0.0112994
-0.0164874
-0.0224824
-0.0289592
-0.0353831
-0.041003
-0.0450452
-0.0466713
-0.0454386
-0.0414093
-0.0352539
-0.0284076
-0.022469
-0.0184862
-0.0171462
-0.0183353
-0.0218088
-0.0296945
-0.0446574
-0.0643799
-0.0812175
-0.0891702
-0.0896928
-0.0882565
-0.0865583
-0.0809114
-0.0661315
-0.0385746
0.00111056
0.0452161
0.0819737
0.104476
0.115592
0.122826
0.129635
0.132825
0.127135
0.110828
0.0871374
0.061776
0.0396496
0.0231635
0.012377
0.00604657
0.00261076
0.000712977
0.00126153
0.00450577
0.0100164
0.0195077
0.0345267
0.0555783
0.080966
0.106209
0.125202
0.133422
0.131238
0.123746
0.11551
0.104509
0.0829561
0.0463881
0.00111211
-0.040029
-0.0685279
-0.0839112
-0.0890526
-0.0876414
-0.0843477
-0.0805978
-0.0721036
-0.0563736
-0.0391181
-0.0283481
-0.0254328
-0.0255255
-0.0254205
-0.0266617
-0.030139
-0.0339105
-0.0362836
-0.0360275
-0.0323839
-0.0260092
-0.0181914
-0.0100929
-0.00283454
0.00291946
0.00706321
0.00955732
0.0108274
0.0111434
0.0109389
0.0104955
0.010069
0.00981643
0.00981665
0.0100697
0.0104966
0.0109405
0.0111454
0.0108298
0.00956005
0.00706605
0.00292208
-0.00283251
-0.0100919
-0.0181917
-0.0260109
-0.0323868
-0.0360311
-0.0362868
-0.0339128
-0.0301398
-0.0266614
-0.0254198
-0.0255245
-0.02543
-0.0283436
-0.0391145
-0.0563733
-0.0721059
-0.0806003
-0.0843497
-0.0876442
-0.089057
-0.0839169
-0.0685343
-0.0400344
0.00111056
0.0463916
0.0829623
0.104514
0.115512
0.123747
0.131241
0.133426
0.125206
0.106211
0.0809662
0.0555768
0.0345244
0.0195057
0.0100149
0.0045049
0.00126125
0.00211879
0.00738215
0.0157444
0.0291404
0.0486943
0.0735712
0.100032
0.121933
0.133509
0.133273
0.125432
0.115773
0.104553
0.084653
0.0497331
0.00419984
-0.0385693
-0.0685279
-0.0849473
-0.0902921
-0.086497
-0.0788291
-0.0730551
-0.0669555
-0.0550392
-0.0403497
-0.0312048
-0.0293913
-0.0293053
-0.0271025
-0.0256714
-0.0274072
-0.0287225
-0.0268838
-0.0224817
-0.0160434
-0.00912538
-0.00374587
-0.00064515
0.000110348
-0.00138859
-0.00422571
-0.00783684
-0.0116719
-0.0151595
-0.0182717
-0.0206615
-0.0225028
-0.0236527
-0.0242444
-0.0242445
-0.0236529
-0.0225031
-0.0206617
-0.0182718
-0.0151593
-0.0116713
-0.00783562
-0.00422379
-0.00138598
0.000113517
-0.000641883
-0.003743
-0.00912355
-0.0160431
-0.0224829
-0.0268859
-0.0287247
-0.0274081
-0.0256711
-0.0271026
-0.0293058
-0.0293901
-0.0312017
-0.0403472
-0.0550393
-0.0669567
-0.0730554
-0.0788297
-0.0864998
-0.090297
-0.0849531
-0.0685343
-0.0385746
0.00419866
0.0497369
0.0846588
0.104557
0.115775
0.125434
0.133277
0.133513
0.121937
0.100034
0.0735707
0.0486925
0.0291383
0.0157426
0.00738103
0.00211841
0.00338267
0.0114996
0.0235246
0.0413401
0.0651308
0.0922226
0.116908
0.132505
0.135407
0.128064
0.116827
0.104723
0.0866173
0.0547075
0.0102187
-0.0341265
-0.0661252
-0.0839112
-0.0902921
-0.0859489
-0.0753706
-0.0682137
-0.0655807
-0.0581199
-0.0439549
-0.0324251
-0.028288
-0.0268111
-0.0234925
-0.0208916
-0.0227194
-0.024363
-0.0209453
-0.0157761
-0.0114399
-0.00843461
-0.00839308
-0.0109757
-0.0146609
-0.0188127
-0.0226824
-0.0253755
-0.0274147
-0.0282947
-0.0286464
-0.0284961
-0.0280966
-0.0277024
-0.0273198
-0.0271411
-0.0271413
-0.0273202
-0.027703
-0.0280975
-0.0284972
-0.0286477
-0.0282962
-0.0274162
-0.0253768
-0.0226835
-0.018813
-0.0146602
-0.0109741
-0.00839059
-0.00843198
-0.011438
-0.0157753
-0.0209461
-0.0243648
-0.0227197
-0.0208904
-0.0234919
-0.0268112
-0.0282868
-0.0324229
-0.0439543
-0.0581217
-0.0655818
-0.0682125
-0.0753702
-0.0859517
-0.090297
-0.0839169
-0.0661315
-0.0341315
0.0102182
0.0547116
0.0866224
0.104726
0.116829
0.128067
0.135411
0.132509
0.116911
0.0922235
0.0651297
0.0413381
0.0235227
0.0114982
0.00338219
0.00514089
0.0170593
0.0334758
0.0558222
0.0828347
0.109808
0.129747
0.137027
0.131574
0.119159
0.105397
0.0884779
0.0604673
0.0187188
-0.0265795
-0.0612431
-0.0809061
-0.0890526
-0.086497
-0.0753706
-0.0665913
-0.0658476
-0.0618803
-0.0465421
-0.0301486
-0.0229707
-0.0218832
-0.0208072
-0.0196486
-0.021973
-0.0246457
-0.0206231
-0.0147366
-0.013346
-0.0138556
-0.0159765
-0.0196208
-0.0222685
-0.0234224
-0.0238173
-0.0227491
-0.0210992
-0.0194612
-0.0172972
-0.015908
-0.0142221
-0.0132889
-0.0123255
-0.0118647
-0.0115609
-0.0115609
-0.0118647
-0.0123255
-0.0132889
-0.0142221
-0.0159082
-0.0172977
-0.019462
-0.0211003
-0.0227505
-0.023819
-0.023424
-0.0222699
-0.0196215
-0.0159759
-0.0138543
-0.0133441
-0.0147348
-0.0206236
-0.0246477
-0.0219733
-0.0196475
-0.0208063
-0.0218819
-0.0229679
-0.0301461
-0.0465431
-0.0618839
-0.0658488
-0.0665895
-0.0753702
-0.0864998
-0.089057
-0.0809114
-0.0612492
-0.0265838
0.0187193
0.0604714
0.0884821
0.1054
0.119161
0.131577
0.137031
0.129751
0.109811
0.0828347
0.0558207
0.0334739
0.0170578
0.00514034
0.00745007
0.024145
0.0454651
0.0719235
0.100454
0.124591
0.137266
0.135491
0.12309
0.107224
0.0902139
0.0660637
0.0288
-0.0159695
-0.0536448
-0.0761039
-0.0865547
-0.0876414
-0.0788291
-0.0682137
-0.0658476
-0.0634647
-0.0474845
-0.0265923
-0.0173569
-0.0187517
-0.0217387
-0.0227872
-0.0235929
-0.0250547
-0.0210923
-0.0140699
-0.0146034
-0.0180318
-0.0191437
-0.0208668
-0.0211036
-0.0191222
-0.0170761
-0.0150766
-0.0122771
-0.0109015
-0.00897428
-0.00778015
-0.00690729
-0.00588537
-0.00560831
-0.00493724
-0.00487925
-0.00465024
-0.00465017
-0.00487909
-0.00493693
-0.00560796
-0.00588486
-0.00690681
-0.0077796
-0.00897379
-0.0109012
-0.0122768
-0.0150769
-0.0170767
-0.0191233
-0.0211053
-0.0208682
-0.0191445
-0.0180321
-0.0146018
-0.0140676
-0.0210928
-0.0250566
-0.0235937
-0.0227875
-0.0217384
-0.0187494
-0.0173522
-0.0265887
-0.0474861
-0.063469
-0.0658488
-0.0682125
-0.0788297
-0.0876442
-0.0865583
-0.0761088
-0.0536505
-0.0159727
0.0288013
0.0660674
0.0902168
0.107226
0.123093
0.135495
0.137271
0.124595
0.100456
0.0719229
0.0454635
0.0241436
0.00744949
0.0103142
0.0326696
0.059065
0.0886434
0.116475
0.135099
0.138865
0.128498
0.110935
0.0923521
0.0708217
0.0391302
-0.00283601
-0.0429716
-0.0694209
-0.0828164
-0.088254
-0.0843477
-0.0730551
-0.0655807
-0.0618803
-0.0474845
-0.0249466
-0.0141838
-0.018075
-0.0243237
-0.0267619
-0.024953
-0.0228718
-0.0203377
-0.014245
-0.0145848
-0.0203351
-0.0193305
-0.0173366
-0.0164325
-0.0130558
-0.0101321
-0.0087485
-0.0066164
-0.00520949
-0.00516423
-0.00372782
-0.00470372
-0.00403316
-0.0049956
-0.00504874
-0.00564225
-0.00587245
-0.0060658
-0.00606569
-0.00587234
-0.00564191
-0.00504836
-0.00499503
-0.0040324
-0.00470294
-0.00372669
-0.00516328
-0.00520831
-0.00661531
-0.00874781
-0.0101313
-0.0130558
-0.0164332
-0.0173373
-0.0193319
-0.0203367
-0.0145835
-0.0142431
-0.0203378
-0.0228726
-0.0249543
-0.0267638
-0.0243244
-0.0180725
-0.0141781
-0.0249425
-0.0474861
-0.0618839
-0.0655818
-0.0730554
-0.0843497
-0.0882565
-0.0828193
-0.0694255
-0.0429765
-0.00283774
0.0391321
0.0708246
0.092354
0.110937
0.128501
0.138869
0.135104
0.116478
0.088644
0.0590641
0.0326684
0.0103137
0.0136681
0.0423434
0.0735582
0.104747
0.129427
0.140308
0.134576
0.11696
0.0959099
0.0747801
0.0483061
0.0115237
-0.0291024
-0.0602797
-0.0777632
-0.0873611
-0.0896898
-0.0805978
-0.0669555
-0.0581199
-0.0465421
-0.0265923
-0.0141838
-0.0181826
-0.026058
-0.0291146
-0.0261004
-0.0200321
-0.0181538
-0.0158399
-0.0137826
-0.0187938
-0.0175321
-0.0114629
-0.0113206
-0.00951169
-0.00722515
-0.00766521
-0.0085307
-0.00844587
-0.0114838
-0.0128642
-0.0151037
-0.0180384
-0.0188789
-0.0217956
-0.0218971
-0.0237595
-0.0236934
-0.0243023
-0.0243024
-0.0236937
-0.0237599
-0.0218976
-0.0217963
-0.0188793
-0.018039
-0.0151038
-0.0128641
-0.0114835
-0.00844483
-0.00852985
-0.00766406
-0.00722359
-0.00951098
-0.01132
-0.011462
-0.0175334
-0.0187953
-0.0137815
-0.0158389
-0.0181532
-0.0200318
-0.0261022
-0.0291174
-0.0260594
-0.0181802
-0.0141781
-0.0265887
-0.0465431
-0.0581217
-0.0669567
-0.0806003
-0.0896928
-0.0873632
-0.0777657
-0.0602839
-0.0291059
0.0115233
0.048308
0.0747818
0.0959112
0.116962
0.134581
0.140313
0.129431
0.104748
0.0735582
0.0423426
0.0136677
0.0173696
0.052671
0.0879871
0.118899
0.13806
0.139718
0.124949
0.101972
0.078916
0.0555245
0.0251911
-0.01275
-0.0478311
-0.0708495
-0.0845897
-0.0928127
-0.0891657
-0.0721036
-0.0550392
-0.0439549
-0.0301486
-0.0173569
-0.018075
-0.026058
-0.0297748
-0.0271634
-0.0185553
-0.0140109
-0.0160325
-0.0137135
-0.0144986
-0.016448
-0.0102691
-0.0107391
-0.0134932
-0.0121045
-0.0141298
-0.0171536
-0.0183993
-0.0200076
-0.0227513
-0.0207752
-0.0225841
-0.019564
-0.0190072
-0.016813
-0.0150153
-0.0138992
-0.0125316
-0.0122083
-0.0122084
-0.0125316
-0.0138995
-0.0150156
-0.0168137
-0.0190081
-0.0195651
-0.0225857
-0.0207765
-0.0227531
-0.0200089
-0.0184001
-0.0171545
-0.0141295
-0.0121038
-0.0134932
-0.0107379
-0.0102678
-0.016449
-0.0144988
-0.0137128
-0.0160319
-0.0140088
-0.0185546
-0.0271657
-0.0297778
-0.0260594
-0.0180725
-0.0173522
-0.0301461
-0.0439543
-0.0550393
-0.0721059
-0.0891702
-0.092816
-0.0845912
-0.0708519
-0.0478345
-0.0127519
0.0251915
0.0555256
0.0789167
0.101974
0.124952
0.139723
0.138064
0.118902
0.0879882
0.052671
0.0173694
0.0212035
0.06298
0.10124
0.129814
0.141474
0.133366
0.110963
0.0848604
0.0612314
0.0363609
0.00418257
-0.0317799
-0.0608681
-0.0797639
-0.0928036
-0.0962157
-0.0812133
-0.0563736
-0.0403497
-0.0324251
-0.0229707
-0.0187517
-0.0243237
-0.0291146
-0.0271634
-0.0182461
-0.010001
-0.013848
-0.0171307
-0.0141027
-0.0172208
-0.015833
-0.0132419
-0.0176017
-0.0159853
-0.0154347
-0.0169049
-0.0158118
-0.0124043
-0.0109716
-0.00638737
-0.00201618
-0.000638588
0.00488297
0.00372199
0.00774725
0.00612222
0.00806351
0.00710089
0.00761311
0.00761314
0.00710144
0.0080642
0.00612319
0.00774859
0.00372312
0.00488457
-0.000637674
-0.00201528
-0.00638699
-0.0109722
-0.0124048
-0.0158131
-0.0169063
-0.0154351
-0.0159858
-0.0176026
-0.0132412
-0.0158331
-0.0172216
-0.0141028
-0.0171315
-0.0138468
-0.00999757
-0.0182453
-0.0271657
-0.0291174
-0.0243244
-0.0187494
-0.0229679
-0.0324229
-0.0403472
-0.0563733
-0.0812175
-0.0962211
-0.0928065
-0.0797653
-0.0608702
-0.031782
0.004182
0.0363613
0.0612315
0.0848607
0.110965
0.13337
0.141479
0.129819
0.101242
0.0629808
0.0212036
0.0248957
0.0724747
0.112157
0.136386
0.139213
0.121823
0.0940008
0.0672205
0.0444381
0.0190657
-0.0133678
-0.046574
-0.0720419
-0.089816
-0.099739
-0.091759
-0.0643789
-0.0391181
-0.0312048
-0.028288
-0.0218832
-0.0217387
-0.0267619
-0.0261004
-0.0185553
-0.010001
-0.0123821
-0.021848
-0.0193708
-0.0158464
-0.0177401
-0.012842
-0.0124176
-0.0127065
-0.00941133
-0.00962741
-0.00742747
-0.00451558
-0.00219712
-0.00348808
-0.00149182
-0.00634489
-0.00750702
-0.0113572
-0.0153293
-0.016757
-0.0209728
-0.0210297
-0.0235159
-0.0233915
-0.0233915
-0.0235163
-0.0210299
-0.0209733
-0.0167572
-0.0153296
-0.0113569
-0.00750619
-0.00634399
-0.00148991
-0.00348666
-0.00219552
-0.00451428
-0.00742723
-0.00962748
-0.00941109
-0.0127069
-0.0124174
-0.0128415
-0.0177406
-0.0158465
-0.0193725
-0.0218504
-0.0123804
-0.00999757
-0.0185546
-0.0261022
-0.0267638
-0.0217384
-0.0218819
-0.0282868
-0.0312017
-0.0391145
-0.0643799
-0.0917649
-0.0997443
-0.0898182
-0.0720432
-0.0465754
-0.0133685
0.0190657
0.0444377
0.0672199
0.0940017
0.121827
0.139218
0.136391
0.112161
0.0724766
0.0248962
0.0281372
0.08031
0.119651
0.137809
0.131322
0.106174
0.0757795
0.0507676
0.0299225
0.00444038
-0.0281118
-0.0597812
-0.0838049
-0.0993322
-0.100124
-0.0776128
-0.0446603
-0.0283481
-0.0293913
-0.0268111
-0.0208072
-0.0227872
-0.024953
-0.0200321
-0.0140109
-0.013848
-0.021848
-0.022885
-0.0122093
-0.0105088
-0.011428
-0.00794402
-0.0106445
-0.0109565
-0.0104184
-0.0103463
-0.0106851
-0.0120855
-0.0153279
-0.0189433
-0.0197422
-0.0242473
-0.0210322
-0.0237978
-0.0194591
-0.0197218
-0.0165962
-0.0156736
-0.0142301
-0.0137116
-0.0137115
-0.0142305
-0.0156739
-0.0165969
-0.0197227
-0.0194602
-0.0237995
-0.0210336
-0.0242493
-0.0197436
-0.0189442
-0.0153284
-0.012085
-0.0106844
-0.0103457
-0.0104182
-0.0109566
-0.0106444
-0.00794312
-0.0114274
-0.0105073
-0.0122084
-0.0228878
-0.0218504