/*--------------------------------*- C++ -*----------------------------------*\
  =========                 |
  \\      /  F ield         | OpenFOAM: The Open Source CFD Toolbox
   \\    /   O peration     | Website:  https://openfoam.org
    \\  /    A nd           | Version:  10
     \\/     M anipulation  |
\*---------------------------------------------------------------------------*/
FoamFile
{
    format      ascii;
    class       volScalarField;
    location    "82";
    object      h;
}
// * * * * * * * * * * * * * * * * * * * * * * * * * * * * * * * * * * * * * //

dimensions      [0 1 0 0 0 0 0];

internalField   nonuniform List<scalar> 
10000
(
0.00268136
0.00784058
0.0124773
0.0164507
0.0197169
0.0221565
0.0234975
0.0234579
0.0220095
0.0195231
0.0166417
0.0139433
0.0116568
0.00966129
0.00771353
0.00569923
0.00373324
0.00204162
0.000772051
-9.33963e-05
-0.00071119
-0.00129148
-0.0019567
-0.00264491
-0.0031351
-0.00318862
-0.00270659
-0.00176318
-0.000565153
0.000579632
0.00135196
0.00157531
0.00129457
0.000715902
5.22759e-05
-0.000584602
-0.00114844
-0.00157492
-0.00180123
-0.00184513
-0.00177564
-0.00158262
-0.00119824
-0.000663398
-0.000125075
0.000343723
0.000775208
0.00115422
0.00139286
0.00147746
0.00147764
0.00139337
0.00115499
0.000776152
0.000344785
-0.000123954
-0.000662297
-0.00119725
-0.00158182
-0.00177509
-0.00184483
-0.00180116
-0.00157505
-0.00114874
-0.000585038
5.17544e-05
0.000715349
0.00129401
0.00157474
0.00135138
0.000579097
-0.000565565
-0.00176342
-0.00270669
-0.00318863
-0.00313507
-0.00264488
-0.00195667
-0.00129145
-0.000711105
-9.31959e-05
0.00077239
0.00204208
0.00373379
0.00569983
0.00771413
0.00966183
0.0116573
0.0139437
0.016642
0.0195234
0.0220097
0.0234581
0.0234976
0.0221565
0.0197169
0.0164506
0.0124772
0.0078405
0.00268131
0.00784058
0.0229174
0.0364447
0.0480111
0.0574966
0.0645624
0.0684208
0.0682519
0.0639787
0.0566985
0.0483087
0.0405085
0.0339586
0.0282891
0.0227742
0.0170652
0.0114775
0.00664773
0.00298444
0.00041248
-0.00154369
-0.0034955
-0.00576944
-0.00814419
-0.00995185
-0.0104908
-0.00945962
-0.00704262
-0.00380599
-0.000622019
0.00159322
0.00233189
0.00171561
0.000314358
-0.0012922
-0.00281002
-0.00412063
-0.0050479
-0.00542485
-0.0053245
-0.004969
-0.0043451
-0.00326186
-0.00182804
-0.000441578
0.000723739
0.00179024
0.00272614
0.00328667
0.0034547
0.00345514
0.00328792
0.002728
0.00179253
0.000726328
-0.000438835
-0.00182533
-0.00325941
-0.00434312
-0.00496761
-0.00532371
-0.00542461
-0.00504813
-0.00412127
-0.00281098
-0.00129336
0.000313104
0.00171431
0.00233052
0.00159181
-0.000623352
-0.00380704
-0.00704327
-0.00945992
-0.0104909
-0.00995192
-0.0081443
-0.00576963
-0.00349569
-0.00154373
0.000412753
0.00298511
0.00664876
0.0114788
0.0170667
0.0227757
0.0282905
0.0339598
0.0405094
0.0483095
0.0566992
0.0639792
0.0682523
0.0684209
0.0645624
0.0574965
0.0480109
0.0364445
0.0229172
0.00784049
0.0124773
0.0364447
0.0578859
0.0761435
0.0910503
0.102098
0.108062
0.107655
0.100773
0.0891926
0.0759707
0.0638287
0.0537981
0.0452494
0.0369903
0.0284298
0.0200164
0.0126944
0.00704477
0.00288263
-0.000594237
-0.00434366
-0.0087964
-0.0134937
-0.0173215
-0.0191646
-0.0185239
-0.0156109
-0.0112184
-0.00664612
-0.00329425
-0.00194741
-0.00244321
-0.00396907
-0.00572026
-0.00731326
-0.00859669
-0.00931161
-0.00922779
-0.00851222
-0.00757082
-0.00642827
-0.0048047
-0.00284788
-0.00110845
0.000239678
0.00146144
0.00253486
0.00309741
0.00317486
0.00317533
0.00309873
0.00253681
0.00146386
0.000242422
-0.00110551
-0.00284495
-0.00480201
-0.00642602
-0.00756917
-0.00851117
-0.00922728
-0.00931156
-0.00859705
-0.00731396
-0.00572119
-0.00397014
-0.00244442
-0.0019488
-0.0032958
-0.00664766
-0.0112197
-0.0156118
-0.0185245
-0.019165
-0.017322
-0.0134944
-0.00879728
-0.00434459
-0.000594964
0.00288235
0.00704507
0.0126953
0.0200178
0.0284316
0.0369921
0.0452511
0.0537996
0.0638299
0.0759717
0.0891935
0.100774
0.107656
0.108062
0.102099
0.0910502
0.0761433
0.0578856
0.0364445
0.0124772
0.0164507
0.0480111
0.0761435
0.0999733
0.119317
0.133563
0.141154
0.140438
0.131309
0.116143
0.099004
0.0834862
0.0709193
0.0604198
0.0503692
0.0399448
0.0296657
0.0206698
0.0136029
0.00811623
0.00309773
-0.00266785
-0.00960304
-0.0169515
-0.0231922
-0.0268956
-0.027417
-0.0249415
-0.0203469
-0.0151819
-0.0111783
-0.00933429
-0.00949753
-0.010749
-0.0122005
-0.0134541
-0.014335
-0.0144976
-0.0136598
-0.0120977
-0.0104165
-0.0087198
-0.00668634
-0.00448764
-0.0027429
-0.00154908
-0.000472639
0.000484457
0.000867888
0.000765029
0.000765284
0.000868601
0.000485522
-0.000471294
-0.0015475
-0.00274114
-0.00448581
-0.00668456
-0.00871818
-0.0104151
-0.0120966
-0.0136589
-0.0144969
-0.0143346
-0.0134539
-0.0122005
-0.0107492
-0.009498
-0.00933512
-0.0111795
-0.0151831
-0.0203481
-0.0249425
-0.0274178
-0.0268964
-0.0231933
-0.0169529
-0.00960479
-0.00266968
0.00309613
0.00811512
0.0136025
0.0206701
0.0296668
0.0399463
0.0503709
0.0604215
0.0709207
0.0834874
0.0990049
0.116144
0.131309
0.140438
0.141154
0.133563
0.119317
0.0999731
0.0761433
0.0480109
0.0164506
0.0197169
0.0574966
0.0910503
0.119317
0.142125
0.158827
0.167642
0.166658
0.155785
0.13789
0.117838
0.099913
0.085666
0.0739884
0.0629044
0.0514058
0.0400624
0.0301256
0.022224
0.0158213
0.00955715
0.00207655
-0.00694739
-0.0164668
-0.0246582
-0.0299336
-0.0316275
-0.0299269
-0.0257076
-0.020599
-0.016509
-0.0145962
-0.014771
-0.0161048
-0.017695
-0.0191297
-0.0201576
-0.0202859
-0.0191358
-0.0170564
-0.0148294
-0.0126597
-0.0102372
-0.00777716
-0.00594984
-0.00477884
-0.0036963
-0.00270282
-0.00234895
-0.00252715
-0.00252721
-0.00234912
-0.00270303
-0.00369648
-0.00477892
-0.00594979
-0.00777696
-0.0102368
-0.012659
-0.0148285
-0.0170554
-0.0191346
-0.0202846
-0.0201563
-0.0191285
-0.017694
-0.0161041
-0.0147707
-0.0145964
-0.0165097
-0.0205999
-0.0257086
-0.0299279
-0.0316285
-0.0299348
-0.0246597
-0.0164687
-0.00694956
0.00207432
0.00955517
0.0158198
0.0222233
0.0301257
0.0400632
0.0514072
0.062906
0.0739899
0.0856672
0.0999139
0.117839
0.13789
0.155785
0.166658
0.167643
0.158827
0.142125
0.119317
0.0910502
0.0574965
0.0197168
0.0221565
0.0645624
0.102098
0.133563
0.158827
0.177263
0.186968
0.185855
0.173852
0.154172
0.132247
0.112835
0.0976265
0.0853295
0.0737024
0.0616263
0.049743
0.0393953
0.0311718
0.0243776
0.0175035
0.0091755
-0.000796996
-0.0111574
-0.0199481
-0.0256194
-0.0276552
-0.0263437
-0.0225422
-0.0178364
-0.0141761
-0.0128374
-0.0138285
-0.0162461
-0.0191525
-0.0220446
-0.0244963
-0.0257801
-0.0253463
-0.0235452
-0.0212755
-0.0188414
-0.0159928
-0.0130357
-0.0107355
-0.00911979
-0.00756885
-0.00611273
-0.00541383
-0.00542698
-0.00542727
-0.00541462
-0.00611382
-0.00757008
-0.00912101
-0.0107367
-0.0130367
-0.0159935
-0.0188416
-0.0212752
-0.0235444
-0.0253452
-0.0257787
-0.0244947
-0.0220431
-0.0191512
-0.0162452
-0.0138282
-0.0128376
-0.0141766
-0.0178371
-0.022543
-0.0263447
-0.0276563
-0.0256205
-0.0199494
-0.011159
-0.000798752
0.0091738
0.017502
0.0243766
0.0311715
0.0393957
0.0497442
0.0616279
0.0737041
0.085331
0.0976276
0.112836
0.132247
0.154172
0.173852
0.185855
0.186968
0.177263
0.158827
0.133563
0.102099
0.0645624
0.0221565
0.0234975
0.0684208
0.108062
0.141154
0.167642
0.186968
0.197185
0.196109
0.183654
0.163216
0.140534
0.120609
0.105174
0.0927891
0.0810381
0.0687624
0.0567063
0.046324
0.0382117
0.0316021
0.0249484
0.0169475
0.00753366
-0.00196092
-0.00964082
-0.0141857
-0.0153782
-0.0137058
-0.0100319
-0.00582973
-0.00298911
-0.00285327
-0.00552532
-0.010108
-0.0155578
-0.0211784
-0.0262838
-0.0298648
-0.0311633
-0.030468
-0.0287251
-0.0263196
-0.0231005
-0.0195066
-0.0164465
-0.0140401
-0.0117003
-0.00949672
-0.00818769
-0.00785247
-0.00785277
-0.0081885
-0.00949783
-0.0117015
-0.0140414
-0.0164478
-0.0195078
-0.0231014
-0.0263202
-0.0287252
-0.0304677
-0.0311627
-0.029864
-0.0262829
-0.0211777
-0.0155573
-0.0101078
-0.00552555
-0.00285378
-0.00298976
-0.0058304
-0.0100326
-0.0137066
-0.0153789
-0.0141865
-0.00964158
-0.00196165
0.00753303
0.0169471
0.0249483
0.0316023
0.0382125
0.0463253
0.056708
0.0687644
0.0810401
0.0927906
0.105175
0.12061
0.140533
0.163215
0.183653
0.196108
0.197185
0.186968
0.167643
0.141154
0.108062
0.0684209
0.0234975
0.0234579
0.0682519
0.107655
0.140438
0.166658
0.185855
0.196109
0.19519
0.182969
0.162854
0.140636
0.121327
0.106589
0.0948451
0.0835654
0.0715883
0.0597651
0.0496887
0.0420549
0.0361487
0.030485
0.0238706
0.0163132
0.00908015
0.00383222
0.00153008
0.00203371
0.00462927
0.00842838
0.0120879
0.0138427
0.0123511
0.00746528
0.0001226
-0.00846744
-0.0173541
-0.0255747
-0.0318816
-0.0353551
-0.0362097
-0.0353857
-0.0333328
-0.0300245
-0.0260367
-0.0224091
-0.0193862
-0.0164592
-0.0137113
-0.0119221
-0.0112811
-0.0112812
-0.0119224
-0.0137117
-0.0164596
-0.0193866
-0.0224097
-0.0260374
-0.0300252
-0.0333334
-0.0353862
-0.0362101
-0.0353555
-0.031882
-0.0255752
-0.0173548
-0.00846832
0.000121568
0.0074642
0.0123501
0.0138419
0.0120874
0.00842807
0.00462903
0.00203351
0.00152995
0.00383225
0.00908045
0.0163138
0.0238714
0.0304861
0.03615
0.0420565
0.0496907
0.0597673
0.0715905
0.0835674
0.0948465
0.106589
0.121327
0.140635
0.162853
0.182968
0.195189
0.196108
0.185855
0.166658
0.140438
0.107656
0.0682522
0.023458
0.0220095
0.0639787
0.100773
0.131309
0.155785
0.173852
0.183654
0.182969
0.1716
0.152833
0.132295
0.114811
0.101851
0.0916848
0.0816784
0.0706616
0.0595615
0.0501209
0.0432324
0.0383642
0.0341671
0.0295499
0.0245194
0.0201648
0.017808
0.0180176
0.0203508
0.0239334
0.0278564
0.0308821
0.0313905
0.028117
0.0209524
0.0109201
-0.000594358
-0.0123989
-0.0233144
-0.031976
-0.0374214
-0.0398292
-0.0401055
-0.0387543
-0.0358828
-0.0321556
-0.0286509
-0.0256972
-0.0228751
-0.020241
-0.0184822
-0.017804
-0.0178039
-0.0184819
-0.0202405
-0.0228746
-0.0256969
-0.0286508
-0.0321557
-0.0358832
-0.0387551
-0.0401066
-0.0398306
-0.0374231
-0.0319777
-0.0233163
-0.012401
-0.000596456
0.0109181
0.0209508
0.028116
0.03139
0.0308821
0.0278567
0.0239337
0.0203511
0.018018
0.0178086
0.0201657
0.0245206
0.0295513
0.0341687
0.0383659
0.0432343
0.0501229
0.0595636
0.0706635
0.08168
0.0916858
0.101852
0.11481
0.132294
0.152831
0.171598
0.182968
0.183653
0.173852
0.155785
0.131309
0.100774
0.0639792
0.0220097
0.0195231
0.0566985
0.0891926
0.116143
0.13789
0.154172
0.163216
0.162854
0.152833
0.13624
0.118392
0.103779
0.0935934
0.0859035
0.0779441
0.0684848
0.058476
0.0498102
0.0436632
0.0398027
0.0370735
0.0344573
0.0318829
0.0301913
0.0303502
0.0326075
0.0363535
0.0406622
0.044604
0.0469721
0.0462532
0.0413111
0.0321605
0.0199445
0.00618793
-0.0077453
-0.0205543
-0.0308903
-0.0378746
-0.0416954
-0.0432021
-0.0429369
-0.041129
-0.0384511
-0.0358872
-0.0337788
-0.0318085
-0.0299953
-0.0288378
-0.0284397
-0.0284395
-0.0288373
-0.0299947
-0.0318079
-0.0337785
-0.0358871
-0.0384512
-0.0411296
-0.042938
-0.0432038
-0.0416975
-0.037877
-0.0308929
-0.020557
-0.00774797
0.00618547
0.0199425
0.0321592
0.0413106
0.0462533
0.0469727
0.0446048
0.0406629
0.0363541
0.032608
0.0303508
0.0301921
0.0318839
0.0344585
0.0370748
0.0398041
0.0436646
0.0498116
0.0584774
0.0684861
0.0779451
0.085904
0.0935933
0.103778
0.118391
0.136238
0.152831
0.162853
0.163215
0.154172
0.13789
0.116144
0.0891934
0.0566992
0.0195234
0.0166417
0.0483087
0.0759707
0.099004
0.117838
0.132247
0.140534
0.140636
0.132295
0.118392
0.103862
0.0927728
0.0859861
0.0813322
0.0758558
0.0681899
0.0592516
0.0510878
0.045231
0.0418515
0.0400512
0.0388715
0.0381073
0.0383286
0.0402156
0.0438396
0.0485752
0.0535145
0.0576523
0.059679
0.0580849
0.0518582
0.0411921
0.0273686
0.0120042
-0.00343658
-0.0175962
-0.0292142
-0.0375594
-0.0428375
-0.0457991
-0.0469891
-0.0467321
-0.0456372
-0.0444922
-0.0436101
-0.042818
-0.0421364
-0.0418444
-0.0418791
-0.041879
-0.0418442
-0.0421363
-0.0428182
-0.0436107
-0.044493
-0.0456381
-0.0467333
-0.0469907
-0.0458012
-0.0428398
-0.0375619
-0.0292167
-0.0175987
-0.00343885
0.0120023
0.0273674
0.0411915
0.0518584
0.0580856
0.05968
0.0576532
0.0535152
0.0485756
0.0438398
0.0402157
0.0383288
0.0381077
0.0388721
0.0400518
0.0418522
0.0452316
0.0510884
0.0592522
0.0681904
0.075856
0.0813321
0.0859857
0.0927719
0.103861
0.118391
0.132294
0.140635
0.140533
0.132247
0.117839
0.0990049
0.0759717
0.0483095
0.016642
0.0139433
0.0405085
0.0638287
0.0834862
0.099913
0.112835
0.120609
0.121327
0.114811
0.103779
0.0927728
0.0853979
0.0821547
0.0806104
0.0775695
0.0714608
0.0631277
0.0547843
0.0483818
0.0445801
0.042812
0.0422024
0.0423996
0.0437255
0.0466817
0.0513185
0.0570934
0.0630962
0.0681195
0.0705814
0.0688377
0.0619448
0.0502799
0.0352721
0.0186087
0.00183415
-0.0136334
-0.0266088
-0.0364949
-0.0434772
-0.048147
-0.0510046
-0.052447
-0.0529945
-0.0532117
-0.0533906
-0.0535562
-0.0537896
-0.05419
-0.0545586
-0.0545587
-0.0541905
-0.0537905
-0.0535575
-0.0533923
-0.0532136
-0.0529965
-0.0524489
-0.0510066
-0.0481491
-0.0434792
-0.0364968
-0.0266106
-0.013635
0.00183291
0.0186079
0.0352719
0.0502802
0.0619456
0.0688388
0.0705824
0.0681202
0.0630964
0.0570933
0.0513182
0.0466814
0.0437252
0.0423994
0.0422024
0.0428121
0.0445802
0.0483819
0.0547843
0.0631276
0.0714606
0.0775691
0.0806099
0.082154
0.085397
0.0927719
0.103778
0.11481
0.121327
0.12061
0.112836
0.0999139
0.0834874
0.0638299
0.0405094
0.0139437
0.0116568
0.0339586
0.0537981
0.0709193
0.085666
0.0976265
0.105174
0.106589
0.101851
0.0935934
0.0859861
0.0821547
0.0822111
0.0834456
0.0824107
0.0773099
0.0689007
0.0595832
0.0517693
0.0466616
0.0440806
0.0432762
0.0437839
0.0457365
0.0495616
0.0553914
0.0627795
0.070711
0.0776181
0.081499
0.0804666
0.0735819
0.0613822
0.0454468
0.0275571
0.00937953
-0.00754987
-0.0220668
-0.0336654
-0.0424653
-0.0488501
-0.0532442
-0.0561201
-0.0579433
-0.0590952
-0.0598739
-0.0605147
-0.0611801
-0.0618532
-0.0623038
-0.0623042
-0.0618542
-0.0611817
-0.0605167
-0.0598763
-0.0590977
-0.0579457
-0.0561223
-0.0532462
-0.0488518
-0.0424667
-0.0336666
-0.0220678
-0.00755054
0.00937933
0.0275574
0.0454476
0.0613832
0.073583
0.0804676
0.0814997
0.0776184
0.0707108
0.062779
0.0553907
0.0495609
0.0457359
0.0437834
0.0432759
0.0440804
0.0466615
0.0517692
0.059583
0.0689003
0.0773092
0.0824099
0.0834447
0.0822103
0.082154
0.0859857
0.0935933
0.101852
0.106589
0.105175
0.0976276
0.0856672
0.0709207
0.0537996
0.0339598
0.0116573
0.00966129
0.0282891
0.0452494
0.0604198
0.0739884
0.0853295
0.0927891
0.0948451
0.0916848
0.0859035
0.0813322
0.0806104
0.0834456
0.0868669
0.087223
0.0825302
0.0734777
0.0626635
0.0529657
0.0461232
0.0423396
0.0410103
0.0416138
0.0441698
0.0490978
0.0566333
0.0663666
0.077053
0.0866447
0.0926561
0.0929356
0.0865361
0.0741382
0.0574768
0.0384777
0.0190033
0.000767263
-0.0150568
-0.0280428
-0.0382377
-0.0458173
-0.0511477
-0.0548215
-0.0573224
-0.0589119
-0.0598933
-0.0606487
-0.0613711
-0.0619616
-0.0622693
-0.0622698
-0.0619628
-0.0613726
-0.0606505
-0.0598952
-0.0589139
-0.0573243
-0.0548233
-0.0511493
-0.0458185
-0.0382385
-0.0280433
-0.0150571
0.000767258
0.0190038
0.0384787
0.0574781
0.0741395
0.0865373
0.0929364
0.0926564
0.0866445
0.0770525
0.0663658
0.0566325
0.049097
0.0441691
0.0416132
0.0410099
0.0423394
0.0461231
0.0529656
0.0626632
0.0734771
0.0825292
0.0872219
0.0868659
0.0834447
0.0806099
0.0813321
0.085904
0.0916858
0.0948465
0.0927906
0.085331
0.0739899
0.0604215
0.0452511
0.0282905
0.00966182
0.00771353
0.0227742
0.0369903
0.0503692
0.0629044
0.0737024
0.0810381
0.0835654
0.0816784
0.0779441
0.0758558
0.0775695
0.0824107
0.087223
0.0882709
0.083488
0.0735389
0.0612037
0.0497637
0.041401
0.0366222
0.034947
0.0358505
0.0393087
0.0457455
0.0554453
0.0679447
0.081694
0.0941475
0.102384
0.104064
0.0982886
0.0858872
0.0687488
0.0489816
0.0287026
0.00983
-0.00646902
-0.0198854
-0.0304399
-0.0381638
-0.0434378
-0.0470475
-0.0495668
-0.0511761
-0.052141
-0.0528814
-0.0535292
-0.053897
-0.0539674
-0.0539677
-0.0538977
-0.05353
-0.0528821
-0.0521417
-0.0511768
-0.0495676
-0.0470484
-0.0434386
-0.0381643
-0.0304401
-0.0198854
-0.00646884
0.00983046
0.0287036
0.0489831
0.0687504
0.0858887
0.0982897
0.104065
0.102384
0.094147
0.0816932
0.0679438
0.0554443
0.0457446
0.039308
0.0358499
0.0349466
0.0366219
0.0414009
0.0497635
0.0612034
0.0735382
0.083487
0.0882697
0.0872219
0.0824099
0.0775691
0.075856
0.0779451
0.08168
0.0835674
0.0810401
0.073704
0.0629059
0.0503709
0.0369921
0.0227757
0.00771412
0.00569923
0.0170652
0.0284298
0.0399448
0.0514058
0.0616263
0.0687624
0.0715883
0.0706616
0.0684848
0.0681899
0.0714608
0.0773099
0.0825302
0.083488
0.0782002
0.0673735
0.0539085
0.0413313
0.0320871
0.0268564
0.0252487
0.0267869
0.0314598
0.0396708
0.051657
0.0668208
0.083312
0.0981794
0.1082
0.110977
0.105744
0.093491
0.0762255
0.0562246
0.0358696
0.0172824
0.0016008
-0.0110268
-0.0206656
-0.0273026
-0.0314286
-0.0340804
-0.0359528
-0.0371486
-0.03785
-0.0384406
-0.038942
-0.0390621
-0.0388974
-0.0388975
-0.0390622
-0.0389418
-0.0384401
-0.0378493
-0.0371478
-0.0359522
-0.03408
-0.0314283
-0.0273023
-0.0206651
-0.0110261
0.0016016
0.0172835
0.035871
0.0562263
0.0762272
0.0934924
0.105745
0.110978
0.1082
0.0981784
0.0833108
0.0668196
0.0516558
0.0396697
0.0314589
0.0267862
0.0252482
0.0268561
0.0320869
0.0413312
0.0539083
0.0673729
0.0781994
0.083487
0.0825292
0.0773092
0.0714606
0.0681904
0.0684861
0.0706635
0.0715905
0.0687644
0.0616279
0.0514072
0.0399463
0.0284316
0.0170667
0.00569983
0.00373324
0.0114775
0.0200164
0.0296657
0.0400624
0.049743
0.0567063
0.0597651
0.0595615
0.058476
0.0592516
0.0631277
0.0689007
0.0734777
0.0735389
0.0673735
0.0557941
0.0417096
0.0286565
0.0191166
0.0138254
0.0124797
0.0147188
0.020605
0.0305023
0.0445178
0.0618706
0.0804691
0.097099
0.108384
0.111979
0.107302
0.0954801
0.078556
0.058892
0.0390924
0.0214859
0.00720853
-0.00373973
-0.0115131
-0.0161421
-0.0182906
-0.0192478
-0.0198101
-0.0199987
-0.0199187
-0.019944
-0.0200359
-0.0198134
-0.0194147
-0.0194145
-0.0198128
-0.020035
-0.0199428
-0.0199172
-0.019997
-0.0198084
-0.0192461
-0.0182892
-0.0161408
-0.0115117
-0.0037382
0.00721022
0.0214878
0.0390945
0.0588939
0.0785576
0.0954812
0.107302
0.111978
0.108383
0.0970974
0.0804674
0.061869
0.0445164
0.0305011
0.0206039
0.014718
0.0124791
0.0138251
0.0191164
0.0286564
0.0417094
0.0557937
0.0673729
0.0735382
0.0734771
0.0689003
0.0631276
0.0592522
0.0584774
0.0595636
0.0597672
0.056708
0.0497441
0.0400632
0.0296668
0.0200178
0.0114788
0.00373379
0.00204162
0.00664773
0.0126944
0.0206698
0.0301256
0.0393953
0.046324
0.0496887
0.0501209
0.0498102
0.0510878
0.0547843
0.0595832
0.0626635
0.0612037
0.0539085
0.0417096
0.027372
0.0141955
0.00450172
-0.000968853
-0.00236781
0.000159552
0.00682529
0.0179708
0.033539
0.0525501
0.0727351
0.0907385
0.103131
0.107649
0.103873
0.0929824
0.0769293
0.0580416
0.0390857
0.0226267
0.00989792
0.000835399
-0.00480032
-0.00712535
-0.00697008
-0.0058081
-0.00449205
-0.00298729
-0.00139853
-0.000203179
0.000571662
0.00134388
0.00201714
0.00201748
0.00134481
0.000572943
-0.000201685
-0.0013968
-0.00298524
-0.0044897
-0.0058056
-0.00696762
-0.00712298
-0.00479797
0.000837867
0.00990058
0.0226294
0.0390883
0.0580437
0.0769306
0.0929829
0.103873
0.107648
0.103129
0.0907363
0.0727329
0.0525481
0.0335374
0.0179696
0.00682438
0.000158891
-0.00236823
-0.00096905
0.00450166
0.0141954
0.0273719
0.0417094
0.0539082
0.0612034
0.0626632
0.059583
0.0547843
0.0510884
0.0498116
0.0501229
0.0496907
0.0463252
0.0393957
0.0301257
0.0206701
0.0126953
0.00664876
0.00204208
0.000772051
0.00298444
0.00704477
0.0136029
0.022224
0.0311718
0.0382117
0.0420549
0.0432324
0.0436632
0.045231
0.0483818
0.0517693
0.0529657
0.0497637
0.0413313
0.0286565
0.0141955
0.000818546
-0.00941354
-0.0157046
-0.0179169
-0.015855
-0.00908022
0.00275664
0.0194313
0.0397637
0.0613482
0.0807588
0.0945508
0.100502
0.0982457
0.0888871
0.0741691
0.0562922
0.0381435
0.0225667
0.0110119
0.00346257
-0.000371916
-0.000686596
0.00159039
0.00490698
0.0083862
0.0120482
0.015684
0.0186063
0.0206118
0.0221001
0.023079
0.0230794
0.0221011
0.0206132
0.0186078
0.0156856
0.0120501
0.00838864
0.00490983
0.00159346
-0.000683495
-0.00036883
0.00346573
0.0110152
0.0225699
0.0381463
0.0562941
0.0741698
0.0888867
0.0982445
0.100501
0.0945485
0.0807563
0.0613458
0.0397617
0.0194299
0.00275588
-0.0090805
-0.015855
-0.0179167
-0.0157043
-0.00941334
0.00081863
0.0141954
0.0286564
0.0413311
0.0497635
0.0529656
0.0517692
0.0483819
0.0452316
0.0436646
0.0432343
0.0420565
0.0382125
0.0311715
0.0222233
0.0136025
0.00704508
0.00298511
0.000772394
-9.33963e-05
0.00041248
0.00288263
0.00811623
0.0158213
0.0243776
0.0316021
0.0361487
0.0383642
0.0398027
0.0418515
0.0445801
0.0466616
0.0461232
0.041401
0.0320871
0.0191166
0.00450172
-0.00941354
-0.0208226
-0.0287474
-0.0325892
-0.031691
-0.0253453
-0.0131987
0.00434361
0.0258999
0.0489497
0.0700341
0.085699
0.0936896
0.0935553
0.0862071
0.0731206
0.056352
0.0388908
0.0238595
0.0129815
0.00636543
0.00371289
0.00479182
0.0086708
0.0138101
0.0192951
0.0250361
0.0306577
0.0352612
0.03846
0.0406123
0.0418481
0.0418484
0.0406133
0.0384612
0.0352626
0.0306593
0.0250379
0.0192973
0.0138128
0.0086739
0.00479514
0.00371625
0.00636877
0.0129848
0.0238625
0.0388932
0.0563533
0.0731206
0.086206
0.0935533
0.0936872
0.0856964
0.0700316
0.0489476
0.0258984
0.00434296
-0.0131986
-0.0253446
-0.03169
-0.0325882
-0.0287465
-0.0208221
-0.00941334
0.00450165
0.0191164
0.0320869
0.0414008
0.0461231
0.0466615
0.0445802
0.0418522
0.0398041
0.0383659
0.03615
0.0316023
0.0243766
0.0158198
0.00811513
0.00288235
0.00041276
-9.3189e-05
-0.00071119
-0.00154369
-0.000594237
0.00309773
0.00955715
0.0175035
0.0249484
0.030485
0.0341671
0.0370735
0.0400512
0.042812
0.0440806
0.0423396
0.0366222
0.0268564
0.0138254
-0.000968853
-0.0157046
-0.0287474
-0.0388012
-0.0446765
-0.0451975
-0.0394187
-0.0270482
-0.00870657
0.0140385
0.0385945
0.0615108
0.0793308
0.0897086
0.0920059
0.0868728
0.0755433
0.0599781
0.0432387
0.0286318
0.0181011
0.0119052
0.00979363
0.0115641
0.0163634
0.0227053
0.0295854
0.0367256
0.0436073
0.0492466
0.0531757
0.0557187
0.0570873
0.0570876
0.0557194
0.0531768
0.0492478
0.0436088
0.0367273
0.0295872
0.0227075
0.016366
0.0115671
0.00979673
0.0119081
0.0181038
0.0286339
0.04324
0.0599784
0.0755424
0.0868709
0.0920034
0.0897059
0.0793283
0.0615087
0.0385932
0.0140381
-0.00870607
-0.0270469
-0.0394168
-0.0451953
-0.0446745
-0.0387997
-0.0287465
-0.0157043
-0.000969054
0.0138251
0.0268561
0.0366219
0.0423394
0.0440804
0.0428121
0.0400518
0.0370748
0.0341687
0.0304861
0.0249483
0.017502
0.00955518
0.00309614
-0.000594955
-0.00154372
-0.000711096
-0.00129148
-0.0034955
-0.00434366
-0.00266785
0.00207655
0.0091755
0.0169475
0.0238706
0.0295499
0.0344573
0.0388715
0.0422024
0.0432762
0.0410103
0.034947
0.0252487
0.0124797
-0.00236781
-0.0179169
-0.0325892
-0.0446765
-0.0523702
-0.0540335
-0.0486069
-0.0359721
-0.0169854
0.00667755
0.0324603
0.0569942
0.0768394
0.0895301
0.0941933
0.0912188
0.0816765
0.0674884
0.0517058
0.0376321
0.0272943
0.0211012
0.0189309
0.0206911
0.0256571
0.0323983
0.0397733
0.0472944
0.0543907
0.0601713
0.0642213
0.0668323
0.0682111
0.0682112
0.0668327
0.064222
0.0601724
0.0543921
0.0472959
0.0397747
0.0323998
0.0256589
0.0206933
0.0189334
0.0211034
0.0272959
0.0376328
0.0517056
0.0674872
0.0816744
0.0912162
0.0941904
0.0895274
0.0768372
0.056993
0.0324601
0.0066785
-0.0169834
-0.0359694
-0.0486038
-0.0540304
-0.0523674
-0.0446745
-0.0325882
-0.0179167
-0.00236823
0.0124791
0.0252482
0.0349465
0.0410099
0.0432759
0.0422024
0.0388721
0.0344585
0.0295513
0.0238714
0.0169471
0.00917381
0.00207434
-0.00266966
-0.00434457
-0.00349568
-0.00129144
-0.0019567
-0.00576944
-0.0087964
-0.00960304
-0.00694739
-0.000796996
0.00753366
0.0163132
0.0245194
0.0318829
0.0381073
0.0423996
0.0437839
0.0416138
0.0358505
0.0267869
0.0147188
0.000159552
-0.015855
-0.031691
-0.0451975
-0.0540335
-0.0562747
-0.0509339
-0.0381702
-0.0190346
0.00484843
0.0311321
0.0566303
0.077947
0.0924997
0.0991891
0.0981848
0.0904538
0.0778774
0.0633572
0.0499757
0.0397047
0.0331194
0.0303214
0.0313954
0.0357626
0.0420456
0.0489786
0.0559162
0.0623357
0.0675597
0.071297
0.0737801
0.0751132
0.0751132
0.07378
0.0712972
0.0675603
0.0623368
0.0559174
0.0489796
0.0420465
0.0357637
0.0313967
0.0303228
0.0331206
0.0397051
0.0499749
0.0633553
0.0778747
0.0904505
0.0981816
0.0991861
0.0924972
0.0779454
0.05663
0.0311332
0.00485086
-0.0190311
-0.0381662
-0.0509298
-0.0562709
-0.0540304
-0.0451953
-0.03169
-0.015855
0.000158885
0.0147179
0.0267862
0.0358499
0.0416132
0.0437834
0.0423994
0.0381077
0.0318839
0.0245205
0.0163137
0.00753303
-0.000798742
-0.00694955
-0.00960477
-0.00879727
-0.00576962
-0.00195666
-0.00264491
-0.00814419
-0.0134937
-0.0169515
-0.0164668
-0.0111574
-0.00196092
0.00908015
0.0201648
0.0301913
0.0383286
0.0437255
0.0457365
0.0441698
0.0393087
0.0314598
0.020605
0.00682529
-0.00908022
-0.0253453
-0.0394187
-0.0486069
-0.0509339
-0.0456608
-0.0332559
-0.0148475
0.00818712
0.0338858
0.059339
0.0812365
0.0969259
0.10514
0.10587
0.0999728
0.0892028
0.0761544
0.0635315
0.0531796
0.0458735
0.0419992
0.0418334
0.0449303
0.0499949
0.0557337
0.0614529
0.0667333
0.0711072
0.074379
0.0766824
0.0779667
0.0779665
0.0766822
0.0743789
0.0711074
0.0667338
0.0614537
0.0557344
0.0499955
0.0449308
0.0418339
0.0419995
0.0458732
0.0531784
0.0635292
0.076151
0.0891986
0.0999684
0.105866
0.105137
0.0969239
0.0812358
0.0593399
0.0338882
0.00819094
-0.0148427
-0.0332508
-0.0456559
-0.0509298
-0.0486038
-0.0394168
-0.0253446
-0.00908051
0.00682437
0.0206039
0.0314588
0.0393079
0.0441691
0.0457359
0.0437251
0.0383288
0.030192
0.0201657
0.00908044
-0.00196164
-0.011159
-0.0164687
-0.0169529
-0.0134944
-0.00814429
-0.00264486
-0.0031351
-0.00995185
-0.0173215
-0.0231922
-0.0246582
-0.0199481
-0.00964082
0.00383222
0.017808
0.0303502
0.0402156
0.0466817
0.0495616
0.0490978
0.0457455
0.0396708
0.0305023
0.0179708
0.00275664
-0.0131987
-0.0270482
-0.0359721
-0.0381702
-0.0332559
-0.0219491
-0.00530119
0.0157097
0.0396052
0.0638135
0.0851784
0.101079
0.110175
0.1123
0.108139
0.0991983
0.0876621
0.0758093
0.0653543
0.0572694
0.0521913
0.0505273
0.0519362
0.0552762
0.0593823
0.0636365
0.0677104
0.0712361
0.0740271
0.0761127
0.0773195
0.0773194
0.0761125
0.0740269
0.071236
0.0677105
0.0636369
0.0593828
0.0552767
0.0519364
0.0505269
0.0521902
0.0572675
0.0653514
0.0758054
0.0876574
0.0991931
0.108134
0.112296
0.110172
0.101078
0.0851788
0.0638156
0.039609
0.0157146
-0.00529552
-0.0219434
-0.0332508
-0.0381662
-0.0359694
-0.0270469
-0.0131986
0.00275587
0.0179696
0.030501
0.0396697
0.0457446
0.049097
0.0495609
0.0466814
0.0402157
0.0303508
0.0178086
0.00383224
-0.00964157
-0.0199494
-0.0246596
-0.0231933
-0.0173219
-0.00995191
-0.00313506
-0.00318862
-0.0104908
-0.0191646
-0.0268956
-0.0299336
-0.0256194
-0.0141857
0.00153008
0.0180176
0.0326075
0.0438396
0.0513185
0.0553914
0.0566333
0.0554453
0.051657
0.0445178
0.033539
0.0194313
0.00434361
-0.00870657
-0.0169854
-0.0190346
-0.0148475
-0.00530119
0.00874257
0.0267486
0.0477184
0.0694493
0.0890485
0.104074
0.113213
0.116164
0.113372
0.106032
0.0959176
0.0849315
0.0746597
0.066179
0.0602313
0.0572348
0.0569236
0.0583952
0.0607675
0.0635926
0.0665762
0.0693121
0.0715561
0.0732895
0.0743199
0.07432
0.0732895
0.071556
0.0693119
0.066576
0.0635926
0.0607677
0.0583955
0.0569233
0.0572335
0.0602287
0.0661752
0.074655
0.0849262
0.095912
0.106026
0.113367
0.11616
0.113211
0.104073
0.0890504
0.0694529
0.0477233
0.0267543
0.00874855
-0.00529552
-0.0148427
-0.0190311
-0.0169834
-0.00870606
0.00434296
0.0194299
0.0335374
0.0445163
0.0516558
0.0554443
0.0566325
0.0553907
0.0513182
0.0438398
0.032608
0.018018
0.00152995
-0.0141865
-0.0256205
-0.0299348
-0.0268964
-0.019165
-0.0104909
-0.00318862
-0.00270659
-0.00945962
-0.0185239
-0.027417
-0.0316275
-0.0276552
-0.0153782
0.00203371
0.0203508
0.0363535
0.0485752
0.0570934
0.0627795
0.0663666
0.0679447
0.0668208
0.0618706
0.0525501
0.0397637
0.0258999
0.0140385
0.00667755
0.00484843
0.00818712
0.0157097
0.0267486
0.0411345
0.0582695
0.0763533
0.0929055
0.10583
0.113953
0.11686
0.114761
0.108573
0.099749
0.089891
0.080406
0.0722949
0.0662031
0.0624364
0.06078
0.060625
0.0614579
0.0630418
0.0650647
0.0670027
0.0685553
0.0697511
0.0704851
0.0704852
0.0697513
0.0685555
0.0670026
0.0650644
0.0630415
0.0614577
0.0606247
0.0607791
0.0624341
0.0661993
0.0722897
0.0803998
0.0898846
0.0997429
0.108567
0.114757
0.116857
0.113952
0.105832
0.0929088
0.0763581
0.0582752
0.0411405
0.0267543
0.0157146
0.00819095
0.00485087
0.00667851
0.0140381
0.0258985
0.0397617
0.0525481
0.061869
0.0668196
0.0679438
0.0663658
0.0627789
0.0570933
0.0485755
0.036354
0.0203511
0.00203352
-0.0153789
-0.0276562
-0.0316285
-0.0274178
-0.0185245
-0.00945992
-0.00270668
-0.00176318
-0.00704262
-0.0156109
-0.0249415
-0.0299269
-0.0263437
-0.0137058
0.00462927
0.0239334
0.0406622
0.0535145
0.0630962
0.070711
0.077053
0.081694
0.083312
0.0804691
0.0727351
0.0613482
0.0489497
0.0385945
0.0324603
0.0311321
0.0338858
0.0396052
0.0477184
0.0582695
0.0709576
0.084423
0.0967463
0.106332
0.112245
0.114033
0.111755
0.106169
0.0985237
0.0901491
0.0821642
0.0752976
0.0699392
0.0662129
0.0639295
0.0627474
0.0624991
0.0631429
0.0643391
0.0654645
0.0662302
0.0667958
0.0671865
0.0671866
0.0667961
0.0662306
0.0654646
0.0643388
0.0631423
0.0624983
0.0627461
0.0639273
0.0662095
0.0699343
0.0752913
0.0821572
0.0901423
0.098518
0.106165
0.111753
0.114032
0.112247
0.106336
0.096751
0.0844288
0.0709637
0.0582752
0.0477233
0.039609
0.0338882
0.0311333
0.0324601
0.0385932
0.0489476
0.0613458
0.0727329
0.0804674
0.0833108
0.0816932
0.0770525
0.0707108
0.0630964
0.0535152
0.0406629
0.0239337
0.00462904
-0.0137065
-0.0263446
-0.0299279
-0.0249425
-0.0156118
-0.00704327
-0.00176342
-0.000565153
-0.00380599
-0.0112184
-0.0203469
-0.0257076
-0.0225422
-0.0100319
0.00842838
0.0278564
0.044604
0.0576523
0.0681195
0.0776181
0.0866447
0.0941475
0.0981794
0.097099
0.0907385
0.0807588
0.0700341
0.0615108
0.0569942
0.0566303
0.059339
0.0638135
0.0694493
0.0763533
0.084423
0.0927418
0.100027
0.105277
0.10789
0.107496
0.104155
0.0986087
0.0919869
0.0853309