/*--------------------------------*- C++ -*----------------------------------*\
  =========                 |
  \\      /  F ield         | OpenFOAM: The Open Source CFD Toolbox
   \\    /   O peration     | Website:  https://openfoam.org
    \\  /    A nd           | Version:  10
     \\/     M anipulation  |
\*---------------------------------------------------------------------------*/
FoamFile
{
    format      ascii;
    class       volScalarField;
    location    "36";
    object      h_0;
}
// * * * * * * * * * * * * * * * * * * * * * * * * * * * * * * * * * * * * * //

dimensions      [0 1 0 0 0 0 0];

internalField   nonuniform List<scalar> 
10000
(
0.000364542
0.000341115
0.000115947
0.000199054
-0.000249146
-0.000280773
2.19777e-05
-0.000150546
1.45119e-05
0.000176413
-0.000126201
-0.000115277
0.000101492
9.70807e-05
7.59026e-05
0.000104673
8.90953e-05
4.68076e-05
-0.000157336
-0.000379813
-0.000567029
-0.000971603
-0.00150056
-0.00201934
-0.00253915
-0.00349428
-0.00443971
-0.00481714
-0.00479815
-0.00407684
-0.00227226
0.000855514
0.00445776
0.00773878
0.00974529
0.00976642
0.00805352
0.00573704
0.00399463
0.00286439
0.00196856
0.000655572
-0.00136556
-0.00408858
-0.00650207
-0.00730388
-0.00579768
-0.00273924
0.000380847
0.00224377
0.00224373
0.000380737
-0.0027394
-0.00579784
-0.00730395
-0.00650202
-0.00408847
-0.00136546
0.000655602
0.00196853
0.00286432
0.00399459
0.00573707
0.00805368
0.00976669
0.0097456
0.00773902
0.00445789
0.000855535
-0.00227231
-0.00407685
-0.00479813
-0.00481714
-0.00443978
-0.00349432
-0.00253918
-0.00201948
-0.00150071
-0.000971705
-0.000567065
-0.000379843
-0.000157315
4.69148e-05
8.91844e-05
0.000104729
7.59428e-05
9.71267e-05
0.000101531
-0.00011537
-0.000126273
0.000176557
1.45301e-05
-0.00015062
2.20255e-05
-0.000280983
-0.000249329
0.000199191
0.000116007
0.000341417
0.00036487
0.000341115
-0.000167653
-0.000362236
0.000382674
-0.000181434
-0.000108249
0.000406935
-0.000261943
-0.000134558
0.000243904
-0.000215141
-0.000154743
0.000122117
-0.00011365
-0.000212996
-9.49908e-05
-0.000124151
-0.000169603
-0.000424078
-0.000625525
-0.00086818
-0.00180841
-0.00325039
-0.00492403
-0.00694817
-0.010252
-0.0134675
-0.015251
-0.0157555
-0.0139389
-0.00865461
0.000499758
0.0111225
0.0210521
0.027378
0.0279815
0.023435
0.0171577
0.012456
0.0094903
0.00706907
0.00337578
-0.00241635
-0.0102038
-0.0170376
-0.0191574
-0.0145971
-0.00560089
0.00350084
0.00891078
0.00891064
0.00350046
-0.00560136
-0.0145975
-0.0191574
-0.0170372
-0.0102032
-0.00241594
0.00337594
0.00706905
0.00949018
0.0124559
0.0171577
0.0234352
0.0279819
0.0273784
0.0210522
0.0111223
0.000499276
-0.00865528
-0.0139394
-0.0157558
-0.0152512
-0.0134677
-0.0102519
-0.0069479
-0.00492391
-0.0032503
-0.00180826
-0.000867994
-0.000625488
-0.000424114
-0.000169552
-0.000124136
-9.5019e-05
-0.000213067
-0.00011366
0.000122226
-0.000154818
-0.000215239
0.000244096
-0.000134663
-0.000262097
0.000407252
-0.000108349
-0.000181542
0.000382986
-0.000362545
-0.000167774
0.000341412
0.000115947
-0.000362236
-0.000355843
0.000298367
-0.000107104
-6.63243e-06
0.000329312
-0.000236658
-0.000153178
0.00014575
-0.000144119
-8.21011e-05
8.77801e-05
-0.000203151
-0.00031457
-0.000161086
-0.000264673
-0.000490559
-0.000812476
-0.0010682
-0.0016625
-0.003147
-0.00529418
-0.00799605
-0.0116529
-0.0168859
-0.0217213
-0.0248522
-0.0258241
-0.0226798
-0.0136647
0.000984055
0.0178443
0.0338066
0.0441888
0.0454728
0.0383691
0.0285104
0.0208848
0.0159089
0.0114979
0.00505731
-0.00467301
-0.0171765
-0.0278722
-0.0309262
-0.0235631
-0.00940575
0.00474174
0.0130978
0.0130975
0.00474101
-0.00940655
-0.0235635
-0.030926
-0.0278715
-0.0171757
-0.00467246
0.00505747
0.0114978
0.0159088
0.0208847
0.0285103
0.0383693
0.0454734
0.0441893
0.0338068
0.017844
0.000983377
-0.0136656
-0.0226806
-0.0258246
-0.0248524
-0.0217214
-0.0168858
-0.0116525
-0.00799574
-0.00529401
-0.00314682
-0.00166228
-0.00106813
-0.000812565
-0.000490593
-0.000264663
-0.000161093
-0.000314658
-0.000203188
8.78801e-05
-8.20987e-05
-0.00014416
0.000145865
-0.000153271
-0.000236801
0.000329552
-6.62289e-06
-0.000107148
0.00029864
-0.000356073
-0.000362544
0.000116003
0.000199054
0.000382674
0.000298367
1.22573e-05
-0.000270397
-0.000242928
-0.000181281
-0.000141333
2.38677e-05
4.32238e-05
-0.000161269
-0.000196891
4.76891e-06
-1.22167e-05
-9.3216e-05
-7.20096e-06
-0.000124895
-0.000544463
-0.00100504
-0.00162948
-0.00303564
-0.0052218
-0.00805478
-0.0118647
-0.0172916
-0.0238341
-0.0295975
-0.0337874
-0.0348424
-0.0298231
-0.0167224
0.00282618
0.0251479
0.0463291
0.060443
0.0625841
0.053593
0.0407953
0.0303507
0.023076
0.016004
0.00621847
-0.00779112
-0.0245442
-0.0382675
-0.041667
-0.0319532
-0.0139225
0.00373811
0.0140743
0.0140739
0.00373709
-0.0139235
-0.0319536
-0.0416667
-0.0382666
-0.0245432
-0.00779051
0.00621863
0.0160039
0.0230759
0.0303506
0.0407952
0.0535933
0.0625849
0.0604438
0.0463295
0.0251478
0.00282572
-0.0167231
-0.0298239
-0.0348429
-0.0337875
-0.0295976
-0.0238342
-0.0172915
-0.0118645
-0.00805476
-0.00522185
-0.00303558
-0.00162935
-0.001005
-0.000544409
-0.000124749
-7.09059e-06
-9.31886e-05
-1.21735e-05
4.79529e-06
-0.000196965
-0.000161335
4.32985e-05
2.3985e-05
-0.000141376
-0.000181375
-0.000243023
-0.000270612
1.22162e-05
0.000298645
0.00038299
0.000199192
-0.000249146
-0.000181434
-0.000107104
-0.000270397
0.000173339
0.000200468
-9.37832e-05
5.26399e-05
-0.000100775
-0.000235038
-0.000101923
-0.000145912
-0.000181146
-0.000252111
-0.000368416
-0.000359929
-0.00045854
-0.000847454
-0.00110029
-0.0017676
-0.00357162
-0.0060811
-0.00953556
-0.0147629
-0.022262
-0.0302316
-0.0374049
-0.0431585
-0.0445086
-0.0377573
-0.0210925
0.00248778
0.0295097
0.0551622
0.0728186
0.0765956
0.0674156
0.0532766
0.0409548
0.0317331
0.0219824
0.00868363
-0.00948299
-0.0295175
-0.0447663
-0.0474784
-0.0357671
-0.0154289
0.00386848
0.0149905
0.0149901
0.00386744
-0.0154299
-0.0357673
-0.0474778
-0.0447652
-0.0295164
-0.00948221
0.00868398
0.0219824
0.0317331
0.0409547
0.0532765
0.0674157
0.0765962
0.0728192
0.0551623
0.0295092
0.002487
-0.0210934
-0.0377586
-0.0445095
-0.0431589
-0.0374048
-0.0302316
-0.0222619
-0.0147624
-0.00953511
-0.00608088
-0.00357144
-0.00176732
-0.00110017
-0.000847519
-0.000458548
-0.000359937
-0.000368485
-0.000252157
-0.000181129
-0.000145864
-0.000101942
-0.00023515
-0.000100745
5.26869e-05
-9.3844e-05
0.0002007
0.000173488
-0.000270611
-0.00010715
-0.000181547
-0.000249328
-0.000280773
-0.000108249
-6.63243e-06
-0.000242928
0.000200468
-1.83377e-05
-0.00031943
0.000111177
-0.000119912
-0.00030099
6.13838e-05
5.93169e-06
-0.000226171
-0.000240916
-0.00025451
-0.00037437
-0.000673447
-0.00120019
-0.001638
-0.00278946
-0.00505232
-0.00789856
-0.0120603
-0.0185268
-0.0271892
-0.0358678
-0.0440457
-0.0505315
-0.0512561
-0.0424394
-0.0229597
0.00385027
0.0344533
0.0630911
0.0829501
0.0882271
0.079843
0.0651715
0.051178
0.0395502
0.0265202
0.00885568
-0.0137712
-0.0364792
-0.0518311
-0.0530344
-0.039961
-0.0193181
-0.000577005
0.0099585
0.00995812
-0.000577833
-0.0193187
-0.039961
-0.0530337
-0.0518301
-0.0364782
-0.0137705
0.00885612
0.0265203
0.0395501
0.0511777
0.0651712
0.079843
0.0882275
0.0829506
0.0630912
0.0344529
0.00384965
-0.0229604
-0.0424404
-0.0512571
-0.0505319
-0.0440455
-0.0358677
-0.0271892
-0.0185264
-0.0120598
-0.00789837
-0.00505233
-0.00278931
-0.00163787
-0.00120029
-0.000673488
-0.000374287
-0.000254463
-0.000240985
-0.000226207
6.08218e-06
6.14801e-05
-0.000301148
-0.000119895
0.000111292
-0.000319641
-1.82934e-05
0.000200697
-0.000243022
-6.62449e-06
-0.000108352
-0.000280981
2.19777e-05
0.000406935
0.000329312
-0.000181281
-9.37832e-05
-0.00031943
-0.000394307
9.24144e-05
-8.94805e-05
-0.000265293
-1.24307e-05
-0.000224448
-0.000409421
-0.000105156
-5.84141e-05
-0.000367369
-0.000667306
-0.00106385
-0.00184794
-0.00364343
-0.00628152
-0.0097801
-0.0152012
-0.0230486
-0.0324551
-0.0420166
-0.0513294
-0.0577563
-0.0569891
-0.0459658
-0.0243299
0.00549032
0.0391357
0.0697818
0.090982
0.0982136
0.0921964
0.0783931
0.0634984
0.0494553
0.0328805
0.0102635
-0.0168529
-0.0414469
-0.0554465
-0.0544617
-0.0408476
-0.0220311
-0.0060466
0.00256834
0.00256817
-0.00604689
-0.0220311
-0.0408472
-0.054461
-0.0554457
-0.0414461
-0.0168521
0.0102642
0.0328809
0.0494553
0.0634981
0.0783927
0.0921963
0.0982139
0.0909825
0.0697821
0.0391356
0.00548987
-0.0243304
-0.0459666
-0.05699
-0.057757
-0.0513294
-0.0420164
-0.0324552
-0.0230485
-0.0152008
-0.00977984
-0.00628154
-0.00364336
-0.00184766
-0.00106371
-0.000667317
-0.000367286
-5.82154e-05
-0.000105112
-0.000409597
-0.00022447
-1.23293e-05
-0.000265381
-8.94327e-05
9.26128e-05
-0.000394474
-0.000319644
-9.38471e-05
-0.000181371
0.000329555
0.000407255
2.2029e-05
-0.000150546
-0.000261943
-0.000236658
-0.000141333
5.26399e-05
0.000111177
9.24144e-05
-4.28849e-05
-0.000289373
-0.000257264
-0.000100595
-0.000309895
-0.00044726
-0.000237313
-0.000463998
-0.000929027
-0.0010074
-0.00121538
-0.00234014
-0.00427446
-0.00672769
-0.0108844
-0.0176161
-0.0265103
-0.0365474
-0.0475437
-0.0582585
-0.0642543
-0.0619285
-0.0494599
-0.0266166
0.00551053
0.0412547
0.0726571
0.0943604
0.103962
0.101731
0.0904527
0.0757949
0.0598357
0.0397426
0.0122055
-0.0188524
-0.0440739
-0.0553208
-0.0516287
-0.0383737
-0.0232511
-0.0118478
-0.00619575
-0.00619559
-0.0118473
-0.0232502
-0.0383726
-0.0516279
-0.0553203
-0.0440733
-0.0188515
0.0122066
0.0397434
0.0598357
0.0757944
0.0904521
0.10173
0.103962
0.0943605
0.0726572
0.0412546
0.00550987
-0.0266174
-0.0494607
-0.0619294
-0.0642552
-0.0582589
-0.0475434
-0.0365471
-0.0265101
-0.0176156
-0.0108837
-0.00672734
-0.00427442
-0.00233996
-0.00121513
-0.00100747
-0.000929249
-0.000463978
-0.000237193
-0.000447351
-0.000309965
-0.000100491
-0.00025729
-0.000289549
-4.28547e-05
9.26155e-05
0.000111295
5.26879e-05
-0.000141376
-0.000236804
-0.0002621
-0.000150621
1.45119e-05
-0.000134558
-0.000153178
2.38677e-05
-0.000100775
-0.000119912
-8.94805e-05
-0.000289373
-0.000178508
-4.85635e-05
-0.000162919
-0.000207325
-0.000181703
-0.000192148
-0.0005475
-0.00092169
-0.00104671
-0.00174055
-0.00354232
-0.00566353
-0.00834573
-0.0135259
-0.0212266
-0.0303787
-0.0406661
-0.0525727
-0.0634374
-0.0678425
-0.0635011
-0.0497709
-0.0259333
0.00763768
0.0440285
0.0745819
0.0955983
0.107053
0.108734
0.10073
0.0867556
0.0687593
0.0445358
0.0119928
-0.0224406
-0.0472828
-0.0552383
-0.0491853
-0.0375972
-0.0277973
-0.0223095
-0.020291
-0.0202905
-0.0223081
-0.0277955
-0.0375957
-0.0491845
-0.0552382
-0.0472828
-0.02244
0.0119939
0.0445367
0.0687593
0.0867548
0.100729
0.108733
0.107052
0.0955982
0.0745823
0.0440289
0.0076374
-0.025934
-0.0497714
-0.0635015
-0.0678432
-0.0634379
-0.0525724
-0.0406655
-0.0303785
-0.0212265
-0.0135254
-0.0083453
-0.00566362
-0.00354248
-0.00174033
-0.00104654
-0.000921815
-0.000547579
-0.000191995
-0.000181594
-0.000207391
-0.000162904
-4.83958e-05
-0.000178569
-0.00028955
-8.94327e-05
-0.000119896
-0.000100745
2.39842e-05
-0.000153273
-0.000134663
1.45292e-05
0.000176413
0.000243904
0.00014575
4.32238e-05
-0.000235038
-0.00030099
-0.000265293
-0.000257264
-4.85635e-05
-0.000154151
-0.000415701
-0.000333056
-0.0002878
-0.000413556
-0.000536638
-0.000640725
-0.000986746
-0.00203668
-0.0039189
-0.00619062
-0.00979572
-0.0162574
-0.0248085
-0.0345814
-0.045931
-0.0586986
-0.06888
-0.0715332
-0.0653196
-0.0500594
-0.0247687
0.00974106
0.0458345
0.0751818
0.0955737
0.109007
0.115033
0.111533
0.0993151
0.079589
0.0511735
0.0143669
-0.0220393
-0.0454188
-0.0502002
-0.0428943
-0.0343957
-0.0310105
-0.032014
-0.0338133
-0.0338125
-0.0320118
-0.0310079
-0.0343935
-0.0428933
-0.0502002
-0.045419
-0.0220389
0.0143681
0.0511746
0.0795892
0.0993143
0.111532
0.115032
0.109006
0.0955735
0.0751824
0.0458353
0.00974119
-0.0247694
-0.0500599
-0.0653199
-0.0715338
-0.0688809
-0.0586989
-0.0459306
-0.0345811
-0.0248087
-0.0162573
-0.00979515
-0.00619034
-0.003919
-0.00203657
-0.000986407
-0.000640565
-0.000536723
-0.000413565
-0.000287692
-0.000333127
-0.000415864
-0.000154052
-4.83973e-05
-0.000257289
-0.000265383
-0.000301152
-0.000235149
4.32994e-05
0.000145867
0.000244101
0.000176557
-0.000126201
-0.000215141
-0.000144119
-0.000161269
-0.000101923
6.13838e-05
-1.24307e-05
-0.000100595
-0.000162919
-0.000415701
-0.000389876
-0.000226096
-0.000488955
-0.000775051
-0.000763107
-0.00102275
-0.00176866
-0.00275595
-0.00429209
-0.00684476
-0.0113764
-0.0183196
-0.0271162
-0.0378344
-0.0505225
-0.0634852
-0.0724883
-0.0740761
-0.0667319
-0.0499459
-0.0235075
0.0103885
0.0445711
0.0721618
0.0918046
0.106771
0.116996
0.118784
0.109235
0.0881278
0.0560214
0.0166228
-0.0195406
-0.0403271
-0.0426122
-0.035643
-0.0314406
-0.0347486
-0.0419143
-0.0471764
-0.0471754
-0.0419115
-0.0347452
-0.0314379
-0.0356416
-0.042612
-0.0403274
-0.0195404
0.0166236
0.0560224
0.0881279
0.109234
0.118783
0.116994
0.10677
0.0918041
0.0721621
0.044572
0.0103888
-0.0235082
-0.0499468
-0.0667324
-0.0740765
-0.0724891
-0.0634858
-0.0505222
-0.0378337
-0.0271159
-0.0183194
-0.0113759
-0.00684417
-0.00429193
-0.00275606
-0.00176866
-0.0010226
-0.00076313
-0.000775213
-0.000488938
-0.000225957
-0.000389934
-0.000415864
-0.000162905
-0.000100489
-1.23273e-05
6.14803e-05
-0.000101939
-0.000161336
-0.000144162
-0.00021524
-0.000126275
-0.000115277
-0.000154743
-8.21011e-05
-0.000196891
-0.000145912
5.93169e-06
-0.000224448
-0.000309895
-0.000207325
-0.000333056
-0.000226096
-0.000128929
-0.000478548
-0.000646477
-0.000622546
-0.00127052
-0.00236381
-0.00342453
-0.00530737
-0.00886184
-0.014302
-0.0213319
-0.0304126
-0.0422189
-0.055427
-0.0671101
-0.0742168
-0.0746486
-0.0657844
-0.0467074
-0.0193105
0.0125788
0.0436049
0.0689468
0.0874813
0.102934
0.116405
0.123058
0.116008
0.0932416
0.0579398
0.0177473
-0.0161899
-0.0340539
-0.0355686
-0.0312219
-0.0325423
-0.0423131
-0.0547349
-0.0627656
-0.0627644
-0.0547319
-0.0423095
-0.0325393
-0.0312202
-0.035568
-0.034054
-0.0161902
0.0177474
0.0579401
0.0932414
0.116007
0.123057
0.116404
0.102933
0.0874809
0.0689473
0.0436059
0.0125797
-0.0193105
-0.046708
-0.065785
-0.0746487
-0.0742171
-0.0671107
-0.0554272
-0.0422184
-0.0304121
-0.0213319
-0.014302
-0.00886154
-0.00530703
-0.00342453
-0.00236396
-0.00127043
-0.000622336
-0.000646489
-0.00047862
-0.000128768
-0.000225955
-0.000333126
-0.000207392
-0.000309964
-0.00022447
6.08143e-06
-0.000145864
-0.000196966
-8.21004e-05
-0.000154819
-0.00011537
0.000101492
0.000122117
8.77801e-05
4.76891e-06
-0.000181146
-0.000226171
-0.000409421
-0.00044726
-0.000181703
-0.0002878
-0.000488955
-0.000478548
-0.000643132
-0.000755956
-0.000763615
-0.00138365
-0.0024201
-0.00359224
-0.00601853
-0.0104482
-0.0165407
-0.0241065
-0.034394
-0.0476321
-0.0610012
-0.0713301
-0.0770194
-0.0763195
-0.0653723
-0.0435788
-0.0155177
0.013845
0.0416102
0.0650702
0.0829204
0.0987948
0.11513
0.126186
0.121498
0.0975102
0.060607
0.0221063
-0.00757544
-0.022539
-0.0252728
-0.0257971
-0.0334661
-0.0489299
-0.0652441
-0.0751219
-0.0751208
-0.0652412
-0.0489264
-0.033463
-0.0257948
-0.0252716
-0.0225387
-0.00757584
0.0221057
0.0606065
0.0975098
0.121497
0.126185
0.115129
0.0987939
0.0829203
0.0650708
0.0416112
0.0138461
-0.015517
-0.0435792
-0.0653733
-0.0763201
-0.0770196
-0.0713306
-0.0610019
-0.0476321
-0.0343933
-0.0241061
-0.0165407
-0.0104481
-0.00601808
-0.0035919
-0.00242006
-0.0013836
-0.000763428
-0.000755873
-0.000643219
-0.000478622
-0.000488937
-0.000287692
-0.000181596
-0.000447351
-0.000409598
-0.000226209
-0.000181128
4.79645e-06
8.78822e-05
0.000122228
0.000101532
9.70807e-05
-0.00011365
-0.000203151
-1.22167e-05
-0.000252111
-0.000240916
-0.000105156
-0.000237313
-0.000192148
-0.000413556
-0.000775051
-0.000646477
-0.000755956
-0.00124562
-0.00146152
-0.00201664
-0.00317204
-0.00465429
-0.00736085
-0.0120049
-0.0183704
-0.0266519
-0.0380758
-0.0519556
-0.0649813
-0.0744664
-0.0793225
-0.0773506
-0.0643487
-0.0408497
-0.0133628
0.0127435
0.0367778
0.0579919
0.0750826
0.0912728
0.109617
0.123798
0.120934
0.0967557
0.0606001
0.026452
0.00270855
-0.00954165
-0.0151568
-0.0221665
-0.0363757
-0.056303
-0.0748813
-0.0855815
-0.0855806
-0.0748789
-0.0562998
-0.0363726
-0.0221638
-0.0151548
-0.00954079
0.00270816
0.0264507
0.0605986
0.0967547
0.120934
0.123798
0.109616
0.0912719
0.0750825
0.0579924
0.0367784
0.0127444
-0.0133619
-0.0408498
-0.0643498
-0.0773517
-0.0793228
-0.0744664
-0.0649818
-0.0519559
-0.0380752
-0.0266511
-0.01837
-0.0120048
-0.00736054
-0.004654
-0.00317195
-0.00201663
-0.00146153
-0.00124563
-0.000755876
-0.000646492
-0.000775212
-0.000413566
-0.000191995
-0.00023719
-0.000105112
-0.000240985
-0.000252155
-1.21748e-05
-0.000203189
-0.00011366
9.71249e-05
7.59026e-05
-0.000212996
-0.00031457
-9.3216e-05
-0.000368416
-0.00025451
-5.84141e-05
-0.000463998
-0.0005475
-0.000536638
-0.000763107
-0.000622546
-0.000763615
-0.00146152
-0.00186539
-0.00256652
-0.00416755
-0.00633178
-0.00956725
-0.0146831
-0.0218167
-0.0311491
-0.0432539
-0.0568121
-0.0690512
-0.0776982
-0.0810015
-0.0764818
-0.0610979
-0.0367166
-0.0103832
0.0125113
0.0325374
0.0508571
0.0668784
0.0829366
0.10155
0.116381
0.114097
0.090606
0.0571381
0.0288773
0.0114596
0.00112749
-0.00885122
-0.0235026
-0.0442156
-0.0674405
-0.0868515
-0.097491
-0.0974903
-0.0868497
-0.067438
-0.0442128
-0.0234998
-0.00884889
0.00112869
0.0114592
0.0288753
0.0571355
0.0906042
0.114096
0.11638
0.101549
0.082936
0.0668785
0.0508578
0.0325381
0.0125122
-0.010382
-0.0367159
-0.0610984
-0.0764829
-0.0810019
-0.077698
-0.0690512
-0.0568124
-0.0432538
-0.0311485
-0.0218163
-0.014683
-0.00956711
-0.00633164
-0.00416745
-0.00256639
-0.00186533
-0.00146153
-0.000763429
-0.000622335
-0.000763127
-0.000536725
-0.000547579
-0.000463975
-5.82172e-05
-0.000254463
-0.000368484
-9.3192e-05
-0.000314658
-0.000213067
7.59404e-05
0.000104673
-9.49908e-05
-0.000161086
-7.20096e-06
-0.000359929
-0.00037437
-0.000367369
-0.000929027
-0.00092169
-0.000640725
-0.00102275
-0.00127052
-0.00138365
-0.00201664
-0.00256652
-0.00328587
-0.00505491
-0.00780388
-0.0116192
-0.0173806
-0.0256702
-0.0363698
-0.0492032
-0.0626498
-0.074781
-0.0830587
-0.0844272
-0.076878
-0.0595193
-0.0350761
-0.00988207
0.0105565
0.0270276
0.0426852
0.0582268
0.074422
0.0921203
0.105803
0.103785
0.0826362
0.053896
0.0324904
0.0213245
0.0124118
-0.00243539
-0.0249095
-0.0516107
-0.0769943
-0.0960373
-0.105908
-0.105908
-0.0960363
-0.0769926
-0.0516083
-0.0249068
-0.00243285
0.0124133
0.0213242
0.0324883
0.0538931
0.0826338
0.103784
0.105803
0.0921203
0.0744221
0.0582272
0.0426859
0.0270284
0.0105573
-0.00988093
-0.0350752
-0.0595194
-0.076879
-0.0844281
-0.0830589
-0.0747809
-0.0626499
-0.0492033
-0.0363695
-0.0256697
-0.0173802
-0.011619
-0.00780362
-0.00505464
-0.00328562
-0.00256639
-0.00201663
-0.0013836
-0.00127043
-0.0010226
-0.00064057
-0.000921816
-0.000929249
-0.000367291
-0.000374286
-0.000359935
-7.0926e-06
-0.000161091
-9.50178e-05
0.000104728
8.90953e-05
-0.000124151
-0.000264673
-0.000124895
-0.00045854
-0.000673447
-0.000667306
-0.0010074
-0.00104671
-0.000986746
-0.00176866
-0.00236381
-0.0024201
-0.00317204
-0.00416755
-0.00505491
-0.00702168
-0.0103766
-0.0146222
-0.0208081
-0.0300986
-0.0418979
-0.0551869
-0.0686437
-0.0810025
-0.08887
-0.0881519
-0.0779655
-0.059688
-0.0362607
-0.0126169
0.00543612
0.0184132
0.0313416
0.046431
0.0623795
0.0778527
0.0889908
0.0872345
0.069869
0.0471633
0.03281
0.0275132
0.0200161
0.00083498
-0.0286192
-0.0602793
-0.0866817
-0.104394
-0.112973
-0.112973
-0.104394
-0.0866809
-0.0602776
-0.0286168
0.000837333
0.0200175
0.0275129
0.0328081
0.0471605
0.0698665
0.0872331
0.0889905
0.0778531
0.0623802
0.0464318
0.0313423
0.0184138
0.00543677
-0.0126161
-0.03626
-0.0596878
-0.0779661
-0.0881531
-0.0888708
-0.0810024
-0.0686434
-0.0551869
-0.0418977
-0.030098
-0.0208074
-0.0146218
-0.0103764
-0.00702134
-0.00505464
-0.00416745
-0.00317196
-0.00242007
-0.00236396
-0.00176866
-0.000986411
-0.00104653
-0.00100747
-0.00066732
-0.000673486
-0.000458548
-0.000124751
-0.00026466
-0.000124138
8.91836e-05
4.68076e-05
-0.000169603
-0.000490559
-0.000544463
-0.000847454
-0.00120019
-0.00106385
-0.00121538
-0.00174055
-0.00203668
-0.00275595
-0.00342453
-0.00359224
-0.00465429
-0.00633178
-0.00780388
-0.0103766
-0.0145863
-0.0195381
-0.0265946
-0.0370519
-0.0496415
-0.0630489
-0.0763761
-0.0884757
-0.0949812
-0.0916819
-0.0790623
-0.0603322
-0.0382993
-0.0164815
-0.000840001
0.00877276
0.0187066
0.0326148
0.0472387
0.059286
0.0667972
0.0649394
0.0515946
0.0349146
0.0268683
0.026642
0.0206429
-0.0018321
-0.0368355
-0.0721478
-0.0985677
-0.114326
-0.121334
-0.121335
-0.114327
-0.0985678
-0.0721471
-0.0368339
-0.00183043
0.0206436
0.0266413
0.0268664
0.0349121
0.0515923
0.0649379
0.0667965
0.0592862
0.0472396
0.0326158
0.0187074
0.0087734
-0.000839329
-0.0164809
-0.0382987
-0.0603316
-0.0790622
-0.0916827
-0.0949822
-0.0884757
-0.0763755
-0.0630486
-0.0496415
-0.0370515
-0.0265939
-0.0195377
-0.0145862
-0.0103764
-0.00780363
-0.00633164
-0.004654
-0.00359191
-0.00342453
-0.00275606
-0.00203657
-0.00174032
-0.00121513
-0.00106371
-0.00120029
-0.000847523
-0.000544411
-0.000490591
-0.000169555
4.69151e-05
-0.000157336
-0.000424078
-0.000812476
-0.00100504
-0.00110029
-0.001638
-0.00184794
-0.00234014
-0.00354232
-0.0039189
-0.00429209
-0.00530737
-0.00601853
-0.00736085
-0.00956725
-0.0116192
-0.0146222
-0.0195381
-0.0256296
-0.034161
-0.0458679
-0.0592992
-0.0734253
-0.0873158
-0.0990971
-0.103843
-0.0982317
-0.0837385
-0.064634
-0.0436568
-0.0233077
-0.00929841
-0.00193563
0.0055727
0.0181642
0.0314159
0.0404193
0.0444646
0.0422721
0.0325834
0.0215095
0.0190021
0.0231637
0.018877
-0.00546866
-0.0440531
-0.0813344
-0.106795
-0.120229
-0.125605
-0.125606
-0.12023
-0.106796
-0.0813349
-0.0440526
-0.00546791
0.0188771
0.0231627
0.0190002
0.0215077
0.0325822
0.0422712
0.044464
0.0404194
0.0314168
0.0181655
0.00557381
-0.00193469
-0.00929759
-0.0233072
-0.0436566
-0.0646335
-0.083738
-0.0982321
-0.103844
-0.0990979
-0.0873154
-0.0734247
-0.0592991
-0.0458678
-0.0341604
-0.0256289
-0.0195377
-0.0146218
-0.011619
-0.00956711
-0.00736054
-0.00601808
-0.00530703
-0.00429193
-0.00391901
-0.00354248
-0.00233996
-0.00184766
-0.00163787
-0.00110018
-0.001005
-0.000812563
-0.000424117
-0.000157313
-0.000379813
-0.000625525
-0.0010682
-0.00162948
-0.0017676
-0.00278946
-0.00364343
-0.00427446
-0.00566353
-0.00619062
-0.00684476
-0.00886184
-0.0104482
-0.0120049
-0.0146831
-0.0173806
-0.0208081
-0.0265946
-0.034161
-0.0439481
-0.0562567
-0.0705032
-0.0858244
-0.100287
-0.111053
-0.113749
-0.106559
-0.0910137
-0.0717227
-0.0517133
-0.0330222
-0.020579
-0.0151114
-0.0100753
0.000815559
0.0129422
0.0197764
0.0205709
0.0172598
0.0103361
0.00447999
0.00711661
0.0152121
0.0129668
-0.0114424
-0.0509497
-0.0879029
-0.111184
-0.121965
-0.125737
-0.125738
-0.121966
-0.111186
-0.0879047
-0.0509508
-0.0114429
0.0129662
0.0152108
0.00711492
0.00447877
0.0103358
0.0172599
0.0205708
0.0197763
0.0129425
0.000816386
-0.0100742
-0.0151102
-0.0205779
-0.0330219
-0.0517136
-0.0717228
-0.0910133
-0.106559
-0.11375
-0.111054
-0.100287
-0.0858238
-0.0705025
-0.0562565
-0.0439478
-0.0341604
-0.0265939
-0.0208074
-0.0173802
-0.014683
-0.0120048
-0.0104481
-0.00886154
-0.00684418
-0.00619035
-0.00566362
-0.00427443
-0.00364336
-0.00278931
-0.00176733
-0.00162934
-0.00106813
-0.000625493
-0.00037984
-0.000567029
-0.00086818
-0.0016625
-0.00303564
-0.00357162
-0.00505232
-0.00628152
-0.00672769
-0.00834573
-0.00979572
-0.0113764
-0.014302
-0.0165407
-0.0183704
-0.0218167
-0.0256702
-0.0300986
-0.0370519
-0.0458679
-0.0562567
-0.0688672
-0.0842126
-0.100533
-0.114514
-0.123214
-0.123837
-0.115688
-0.099339
-0.0794916
-0.0600617
-0.0432251
-0.0325374
-0.0288645
-0.0261034
-0.0166998
-0.00498896
0.000474842
-0.00223967
-0.00793155
-0.0131353
-0.0140286
-0.00662812
0.00462516
0.00433195
-0.0184176
-0.055941
-0.090013
-0.109866
-0.117771
-0.120055
-0.120055
-0.117773
-0.109869
-0.0900164
-0.0559439
-0.0184197
0.00433044
0.00462368
-0.00662961
-0.0140294
-0.013135
-0.00793065
-0.00223902
0.000474848
-0.00498933
-0.0167
-0.0261031
-0.0288633
-0.0325361
-0.0432246
-0.0600621
-0.0794923
-0.0993391
-0.115688
-0.123837
-0.123215
-0.114515
-0.100533
-0.0842117
-0.0688664
-0.0562565
-0.0458678
-0.0370515
-0.030098
-0.0256697
-0.0218163
-0.0183701
-0.0165408
-0.014302
-0.0113759
-0.00979515
-0.0083453
-0.00672735
-0.00628154
-0.00505233
-0.00357144
-0.00303558
-0.00166228
-0.000867997
-0.00056706
-0.000971603
-0.00180841
-0.003147
-0.0052218
-0.0060811
-0.00789856
-0.0097801
-0.0108844
-0.0135259
-0.0162574
-0.0183196
-0.0213319
-0.0241065
-0.0266519
-0.0311491
-0.0363698
-0.0418979
-0.0496415
-0.0592992
-0.0705032
-0.0842126
-0.100972
-0.117437
-0.129865
-0.136195
-0.13503
-0.125699
-0.10758
-0.0859196
-0.0661478
-0.0509443
-0.0418395
-0.0392265
-0.0374077
-0.0283119
-0.016201
-0.0119454
-0.0188594
-0.0280877
-0.0322639
-0.0283962
-0.0169598
-0.00390224
-0.0028156
-0.0224125
-0.0551089
-0.0838288
-0.0991443
-0.104044
-0.104972
-0.104973
-0.104046
-0.099148
-0.0838337
-0.0551139
-0.0224165
-0.00281803
-0.00390368
-0.0169608
-0.0283966
-0.0322633
-0.0280862
-0.0188577
-0.0119444
-0.0162013
-0.0283129
-0.0374083
-0.0392257
-0.041838
-0.0509431
-0.0661478
-0.0859204
-0.107581
-0.1257
-0.13503
-0.136196
-0.129866
-0.117438
-0.100972
-0.0842117
-0.0705025
-0.0592991
-0.0496415
-0.0418977
-0.0363695
-0.0311485
-0.0266511
-0.0241061
-0.0213319
-0.0183195
-0.0162573
-0.0135254
-0.0108837
-0.00977984
-0.00789838
-0.00608089
-0.00522184
-0.00314682
-0.00180827
-0.0009717
-0.00150056
-0.00325039
-0.00529418
-0.00805478
-0.00953556
-0.0120603
-0.0152012
-0.0176161
-0.0212266
-0.0248085
-0.0271162
-0.0304126
-0.034394
-0.0380758
-0.0432539
-0.0492032
-0.0551869
-0.0630489
-0.0734253
-0.0858244
-0.100533
-0.117437
-0.132536
-0.143023
-0.147488
-0.144723
-0.133434
-0.112704
-0.0889089
-0.0690136
-0.0559638
-0.0485211
-0.0459154
-0.0431133
-0.0330271
-0.02033
-0.0177025
-0.0290408
-0.0417032
-0.0444495
-0.0356446
-0.0208341
-0.00714937
-0.00489685
-0.0195854
-0.0445555
-0.0655349
-0.0752129
-0.0768453
-0.0763943
-0.076395
-0.0768478
-0.0752173
-0.065541
-0.0445622
-0.0195911
-0.00490028
-0.00715072
-0.0208343
-0.0356444
-0.0444488
-0.0417017
-0.0290385
-0.0177005
-0.0203296
-0.0330284
-0.043115
-0.0459158
-0.0485201
-0.0559624
-0.0690129
-0.0889094
-0.112706
-0.133436
-0.144723
-0.147488
-0.143024
-0.132537
-0.117438
-0.100533
-0.0858237
-0.0734247
-0.0630486
-0.0551869
-0.0492033
-0.0432538
-0.0380752
-0.0343933
-0.0304121
-0.0271159
-0.0248087
-0.0212265
-0.0176157
-0.0152008
-0.0120598
-0.00953511
-0.00805476
-0.00529402
-0.00325031
-0.0015007
-0.00201934
-0.00492403
-0.00799605
-0.0118647
-0.0147629
-0.0185268
-0.0230486
-0.0265103
-0.0303787
-0.0345814
-0.0378344
-0.0422189
-0.0476321
-0.0519556
-0.0568121
-0.0626498
-0.0686437
-0.0763761
-0.0873158
-0.100287
-0.114514
-0.129865
-0.143023
-0.152092
-0.154895
-0.149606
-0.134889
-0.110971
-0.0853699
-0.0658706
-0.0550631
-0.0485543
-0.0442446
-0.0385773
-0.0271283
-0.014954
-0.0150475
-0.0306572
-0.0460468
-0.0470928
-0.0340425
-0.0172469
-0.00430586
-0.00113148
-0.00959321
-0.0247713
-0.0364501
-0.0398271
-0.0379688
-0.0360057
-0.0360066
-0.0379717
-0.0398321
-0.0364571
-0.0247792
-0.00960026
-0.00113598
-0.00430736
-0.0172464
-0.0340414
-0.0470917
-0.0460455
-0.0306549
-0.0150447
-0.0149523
-0.0271288
-0.0385794
-0.0442463
-0.0485546
-0.0550622
-0.0658692
-0.0853695
-0.110972
-0.134892
-0.149608
-0.154895
-0.152092
-0.143024
-0.129866
-0.114515
-0.100287
-0.0873154
-0.0763755
-0.0686434
-0.0626499
-0.0568124
-0.0519559
-0.0476321
-0.0422184
-0.0378337
-0.0345811
-0.0303785
-0.0265101
-0.0230485
-0.0185264
-0.0147624
-0.0118645
-0.00799575
-0.00492391
-0.00201947
-0.00253915
-0.00694817
-0.0116529
-0.0172916
-0.022262
-0.0271892
-0.0324551
-0.0365474
-0.0406661
-0.045931
-0.0505225
-0.055427
-0.0610012
-0.0649813
-0.0690512
-0.074781
-0.0810025
-0.0884757
-0.0990971
-0.111053
-0.123214
-0.136195
-0.147488
-0.154895
-0.154641
-0.144922
-0.125612
-0.0989287
-0.0726468
-0.0542275
-0.0453174
-0.0387412
-0.0315845
-0.0226894
-0.0112101
-0.00170357
-0.00559975
-0.0247305
-0.0419074
-0.0415226
-0.0256827
-0.0084055
0.00292289
0.00711886
0.00575394
0.0014417
-0.000278069
0.00291651
0.00850989
0.0122478
0.0122467
0.00850658
0.00291111
-0.000285353
0.00143331
0.00574603
0.0071133
0.00292074
-0.00840476
-0.0256807
-0.041521
-0.0419063
-0.0247288
-0.00559705
-0.00170105
-0.0112093
-0.0226906
-0.0315866
-0.0387427
-0.0453175
-0.0542261
-0.0726453
-0.0989286
-0.125614
-0.144924
-0.154643
-0.154895
-0.147488
-0.136196
-0.123215
-0.111054
-0.0990978
-0.0884757
-0.0810024
-0.0747809
-0.0690512
-0.0649818
-0.0610019
-0.0554272
-0.0505222
-0.0459306
-0.0406656
-0.0365471
-0.0324552
-0.0271892
-0.0222619
-0.0172915
-0.0116525
-0.00694789
-0.00253918
-0.00349428
-0.010252
-0.0168859
-0.0238341
-0.0302316
-0.0358678
-0.0420166
-0.0475437
-0.0525727
-0.0586986
-0.0634852
-0.0671101
-0.0713301
-0.0744664
-0.0776982
-0.0830587
-0.08887
-0.0949812
-0.103843
-0.113749
-0.123837
-0.13503
-0.144723
-0.149606
-0.144922
-0.13011
-0.106819
-0.0789289
-0.0531474
-0.0357282
-0.0273724
-0.019413
-0.00898026
0.00234347
0.01212
0.0174873
0.00984438
-0.0113807
-0.0295367
-0.0285535
-0.0116234
0.00512403
0.0147241
0.0202157
0.0260314
0.0324095
0.0402808
0.049828
0.0592769
0.0650546
0.0650533
0.0592732
0.0498225
0.0402738
0.0324015
0.0260235
0.0202095
0.0147211
0.00512436
-0.0116211
-0.028551
-0.029535
-0.0113793
0.00984658
0.01749
0.0121222
0.00234408
-0.00898142
-0.019415
-0.0273738
-0.0357277
-0.0531458
-0.0789276
-0.10682
-0.130112
-0.144924
-0.149608
-0.144723
-0.13503
-0.123837
-0.11375
-0.103844
-0.0949821
-0.0888707
-0.0830589
-0.077698
-0.0744664
-0.0713306
-0.0671107
-0.0634858
-0.0586989
-0.0525724
-0.0475434
-0.0420164
-0.0358677
-0.0302316
-0.0238342
-0.0168858
-0.0102519
-0.00349432
-0.00443971
-0.0134675
-0.0217213
-0.0295975
-0.0374049
-0.0440457
-0.0513294
-0.0582585
-0.0634374
-0.06888
-0.0724883
-0.0742168
-0.0770194
-0.0793225
-0.0810015
-0.0844272