/*--------------------------------*- C++ -*----------------------------------*\
  =========                 |
  \\      /  F ield         | OpenFOAM: The Open Source CFD Toolbox
   \\    /   O peration     | Website:  https://openfoam.org
    \\  /    A nd           | Version:  10
     \\/     M anipulation  |
\*---------------------------------------------------------------------------*/
FoamFile
{
    format      ascii;
    class       volScalarField;
    location    "35";
    object      h_0;
}
// * * * * * * * * * * * * * * * * * * * * * * * * * * * * * * * * * * * * * //

dimensions      [0 1 0 0 0 0 0];

internalField   nonuniform List<scalar> 
10000
(
0.000185328
0.000180069
0.000106654
0.000204607
-9.57689e-05
-0.00018927
3.04708e-06
-0.000155095
-8.61196e-05
5.47426e-05
-0.000157065
-5.14566e-05
0.000160997
6.57596e-05
2.63389e-05
9.18895e-05
0.000173717
0.000227441
-2.17365e-06
-0.000228892
-0.000155826
-0.000368593
-0.000781385
-0.000835786
-0.000670461
-0.000916724
-0.00150739
-0.00178039
-0.00222114
-0.00312112
-0.00416172
-0.0047946
-0.00483361
-0.00395617
-0.00162424
0.00169414
0.00509173
0.00773507
0.00950428
0.00990908
0.00856901
0.00568656
0.00261661
0.000750612
0.000519693
0.000853944
5.27416e-06
-0.00303813
-0.00738446
-0.0106112
-0.0106112
-0.00738432
-0.00303793
5.44958e-06
0.00085399
0.000519572
0.000750415
0.00261648
0.00568659
0.00856917
0.00990927
0.00950443
0.00773517
0.00509183
0.00169421
-0.0016242
-0.00395614
-0.00483352
-0.00479447
-0.00416154
-0.00312091
-0.00222098
-0.00178037
-0.00150748
-0.000916779
-0.000670577
-0.000836026
-0.000781618
-0.000368676
-0.00015583
-0.000228937
-2.10959e-06
0.000227607
0.000173825
9.19305e-05
2.63254e-05
6.57808e-05
0.000161082
-5.15056e-05
-0.00015713
5.48161e-05
-8.61655e-05
-0.000155162
3.05008e-06
-0.000189429
-9.58144e-05
0.000204758
0.000106711
0.000180224
0.000185487
0.000180069
-0.000134807
-0.000234326
0.000234192
-0.000159965
-8.21304e-05
0.000336836
-0.000241618
-0.000124302
0.000264471
-0.000228821
-0.000184788
0.000108466
-9.07885e-05
-0.000201913
-0.000172184
-6.77709e-05
6.01151e-05
-0.000241226
-0.000326542
0.000248369
1.7401e-05
-0.000747165
-0.000855587
-0.000797217
-0.0020672
-0.00428385
-0.00584873
-0.00808056
-0.0114072
-0.0148253
-0.0168791
-0.0170761
-0.0143463
-0.00712566
0.00312035
0.0137035
0.0221291
0.0279479
0.0296628
0.0262148
0.0183054
0.00985561
0.004788
0.00417918
0.00495753
0.00225214
-0.00660606
-0.0190088
-0.0281422
-0.028142
-0.0190082
-0.00660528
0.0022528
0.00495777
0.00417894
0.00478756
0.00985538
0.0183056
0.0262153
0.0296632
0.0279481
0.0221291
0.0137034
0.00312007
-0.00712612
-0.0143468
-0.0170765
-0.0168794
-0.0148254
-0.0114071
-0.00808041
-0.00584869
-0.00428391
-0.00206698
-0.000796961
-0.000855593
-0.000747231
1.75605e-05
0.000248562
-0.000326658
-0.000241301
6.02066e-05
-6.77689e-05
-0.000172248
-0.000201985
-9.07747e-05
0.000108576
-0.000184894
-0.000228901
0.000264675
-0.000124413
-0.000241733
0.000337095
-8.22057e-05
-0.000160039
0.000234383
-0.000234518
-0.000134902
0.000180217
0.000106654
-0.000234326
-0.000236188
0.000187642
-0.000237672
-3.16981e-05
0.000345285
-0.000292929
-0.000118244
0.000283185
-0.000162263
-0.000189117
3.04531e-06
-0.000133763
-0.00025287
-0.000246935
-0.000171774
-0.000213643
-0.000518728
-0.000389201
0.000150146
-0.000253784
-0.000961254
-0.00104668
-0.00142515
-0.00356277
-0.00661205
-0.00931855
-0.0134963
-0.0190762
-0.0243412
-0.0275307
-0.027982
-0.0235486
-0.0119014
0.00471151
0.0218573
0.0357059
0.0451282
0.047819
0.0422685
0.0300041
0.0170621
0.00916659
0.00750486
0.00737028
0.00185852
-0.0124209
-0.031323
-0.0449534
-0.044953
-0.0313219
-0.0124196
0.00185959
0.00737065
0.00750446
0.00916589
0.0170617
0.0300044
0.0422692
0.0478196
0.0451284
0.0357058
0.021857
0.00471104
-0.0119021
-0.0235495
-0.0279827
-0.0275311
-0.0243414
-0.0190761
-0.013496
-0.00931833
-0.00661201
-0.00356247
-0.00142471
-0.00104651
-0.000961283
-0.000253663
0.000150368
-0.000389301
-0.000518927
-0.000213654
-0.000171778
-0.000247004
-0.000252912
-0.000133737
3.10534e-06
-0.000189198
-0.000162306
0.000283407
-0.000118321
-0.000293101
0.000345569
-3.16894e-05
-0.00023783
0.000187815
-0.000236307
-0.000234513
0.000106709
0.000204607
0.000234192
0.000187642
0.000153311
-0.00022325
-0.000213226
-0.000110421
-0.000253919
-7.31921e-05
-3.4142e-05
-0.000265921
-0.00016039
6.36439e-05
-3.48114e-05
-0.000175536
1.49723e-05
0.000153769
-0.000119537
-0.000387618
-0.000283286
-0.000526409
-0.00136469
-0.00191455
-0.00221298
-0.00342978
-0.00611137
-0.00908241
-0.0127259
-0.0186036
-0.0258424
-0.0320558
-0.0358067
-0.0362856
-0.0300507
-0.014592
0.00761109
0.0304247
0.0491768
0.0614334
0.0645541
0.0569662
0.0414116
0.0252472
0.0148848
0.0110099
0.00789085
-0.0017781
-0.020869
-0.0439898
-0.0600838
-0.0600833
-0.0439884
-0.0208672
-0.0017767
0.00789134
0.0110094
0.014884
0.0252466
0.0414118
0.056967
0.0645548
0.0614337
0.0491768
0.0304246
0.00761082
-0.0145926
-0.0300514
-0.036286
-0.0358067
-0.0320557
-0.0258422
-0.0186032
-0.0127255
-0.00908236
-0.00611146
-0.00342969
-0.00221298
-0.00191481
-0.00136493
-0.000526338
-0.000283181
-0.000387662
-0.000119455
0.000153979
1.50425e-05
-0.000175585
-3.47844e-05
6.37374e-05
-0.000160418
-0.000266046
-3.40807e-05
-7.31102e-05
-0.000254039
-0.000110462
-0.000213296
-0.000223417
0.000153386
0.000187821
0.000234386
0.000204757
-9.57689e-05
-0.000159965
-0.000237672
-0.00022325
0.000155571
0.000129007
-0.000146792
6.69832e-05
-2.8549e-05
-0.000280904
-0.000151443
-0.000157078
-0.000177797
-0.000315487
-0.000440557
-0.000214128
-0.000258393
-0.000570807
-0.000304897
9.72143e-05
-0.000473443
-0.00101391
-0.0010945
-0.00190656
-0.00439301
-0.00788343
-0.0114374
-0.0171149
-0.025392
-0.0345579
-0.0418449
-0.0461921
-0.0463459
-0.0380183
-0.0190273
0.00828226
0.0366009
0.0603825
0.0754627
0.0792798
0.0708902
0.0543363
0.0371784
0.0252128
0.0181281
0.0101088
-0.00477316
-0.0275673
-0.0521183
-0.0683033
-0.0683027
-0.0521167
-0.0275653
-0.0047714
0.0101097
0.018128
0.0252121
0.0371779
0.0543364
0.0708908
0.0792805
0.075463
0.0603824
0.0366006
0.00828173
-0.0190283
-0.0380194
-0.0463468
-0.0461925
-0.0418452
-0.0345582
-0.0253918
-0.0171144
-0.0114371
-0.00788348
-0.0043928
-0.00190607
-0.00109424
-0.00101397
-0.000473376
9.75059e-05
-0.00030491
-0.000571017
-0.000258381
-0.000214076
-0.000440683
-0.000315575
-0.00017775
-0.000156996
-0.000151488
-0.000281051
-2.84446e-05
6.70618e-05
-0.000146907
0.000129197
0.000155764
-0.000223417
-0.000237832
-0.000160047
-9.58149e-05
-0.00018927
-8.21304e-05
-3.16981e-05
-0.000213226
0.000129007
-8.27055e-05
-0.000347941
0.000133297
-0.000149477
-0.000379443
0.000122066
-3.6376e-05
-0.000357905
-0.000299644
-0.000171424
-0.000158162
-0.000515939
-0.000769911
-0.000387449
-0.000399418
-0.0013101
-0.00150013
-0.00146972
-0.00287517
-0.00589674
-0.00932026
-0.0134155
-0.0206948
-0.0304641
-0.0407161
-0.0488919
-0.0537642
-0.0530994
-0.0429357
-0.0214841
0.00916188
0.0416782
0.0691374
0.0858007
0.0895734
0.0810507
0.065244
0.0485817
0.0350472
0.0231188
0.00811719
-0.0129761
-0.0383326
-0.0617282
-0.0758425
-0.0758419
-0.0617267
-0.0383306
-0.0129743
0.00811832
0.023119
0.0350467
0.048581
0.0652436
0.0810508
0.0895738
0.0858009
0.0691373
0.0416778
0.0091613
-0.021485
-0.0429367
-0.0531002
-0.0537645
-0.048892
-0.0407162
-0.0304639
-0.0206942
-0.0134149
-0.00932017
-0.00589674
-0.00287476
-0.00146935
-0.00150026
-0.00131035
-0.000399251
-0.00038734
-0.00077017
-0.000516066
-0.000158001
-0.000171325
-0.000299752
-0.00035802
-3.62122e-05
0.000122232
-0.000379653
-0.00014946
0.000133484
-0.000348153
-8.27172e-05
0.000129192
-0.000213295
-3.16878e-05
-8.22079e-05
-0.000189424
3.04708e-06
0.000336836
0.000345285
-0.000110421
-0.000146792
-0.000347941
-0.00035979
5.0327e-05
-0.000224071
-0.000373887
-1.42303e-05
-0.000230644
-0.000486486
-0.000131453
6.11071e-05
-0.000249426
-0.000421265
-0.000236476
-0.000146444
-0.000840216
-0.00168188
-0.00179298
-0.0025295
-0.00480882
-0.00796372
-0.0113984
-0.0168599
-0.0254961
-0.0358598
-0.046499
-0.0553952
-0.0602838
-0.0577076
-0.045323
-0.0217928
0.0110899
0.0469291
0.0769951
0.0944581
0.0981414
0.0908184
0.0777452
0.0629151
0.0476317
0.0294259
0.00599094
-0.0216581
-0.0483304
-0.0684623
-0.0788799
-0.0788795
-0.0684612
-0.0483288
-0.0216563
0.0059924
0.0294267
0.0476316
0.0629144
0.0777444
0.0908178
0.0981414
0.0944585
0.0769954
0.0469291
0.0110895
-0.0217934
-0.0453236
-0.0577081
-0.060284
-0.0553951
-0.0464989
-0.0358597
-0.0254957
-0.0168593
-0.0113982
-0.00796402
-0.00480889
-0.00252923
-0.00179297
-0.00168222
-0.000840234
-0.000146095
-0.000236352
-0.000421396
-0.000249385
6.13728e-05
-0.000131418
-0.000486713
-0.00023064
-1.40771e-05
-0.000374005
-0.00022411
5.05146e-05
-0.000359878
-0.000348153
-0.000146911
-0.000110458
0.000345572
0.000337095
3.0531e-06
-0.000155095
-0.000241618
-0.000292929
-0.000253919
6.69832e-05
0.000133297
5.0327e-05
-0.000105375
-0.000306382
-0.000204791
-0.000187529
-0.000443204
-0.000474915
-0.000207029
-0.000401006
-0.000880451
-0.000629993
-0.000162309
-0.000423125
-0.00105542
-0.000943606
-0.000984686
-0.0026785
-0.00545792
-0.0085426
-0.0128927
-0.0207827
-0.0310147
-0.0419536
-0.0533013
-0.0633703
-0.0680692
-0.063137
-0.0482847
-0.0230138
0.0113501
0.0495008
0.0812103
0.0992162
0.103641
0.0994474
0.0911025
0.0792766
0.0621244
0.0369948
0.00482492
-0.0287135
-0.055357
-0.0707863
-0.076628
-0.0766278
-0.0707857
-0.0553558
-0.0287118
0.00482672
0.0369962
0.062125
0.0792761
0.0911013
0.0994462
0.10364
0.0992165
0.0812108
0.0495009
0.0113496
-0.0230146
-0.0482855
-0.0631378
-0.0680699
-0.0633707
-0.0533014
-0.0419537
-0.0310147
-0.0207822
-0.0128921
-0.00854245
-0.00545797
-0.00267811
-0.0009841
-0.000943524
-0.00105566
-0.000422989
-0.000162034
-0.000630145
-0.000880792
-0.000400982
-0.000206847
-0.000474991
-0.000443354
-0.000187453
-0.000204718
-0.000306544
-0.000105418
5.05188e-05
0.000133486
6.7063e-05
-0.000254038
-0.000293106
-0.000241737
-0.000155163
-8.61196e-05
-0.000124302
-0.000118244
-7.31921e-05
-2.8549e-05
-0.000149477
-0.000224071
-0.000306382
-0.000227554
-7.60728e-05
-0.000236901
-0.000292725
-0.000169642
-0.000204473
-0.000524002
-0.000704921
-0.000412148
-0.000463736
-0.00128793
-0.00174675
-0.00127927
-0.00194827
-0.00430618
-0.00675347
-0.00939319
-0.0146543
-0.0240565
-0.0347622
-0.0455945
-0.0573187
-0.0681402
-0.072175
-0.0651082
-0.0481195
-0.0220117
0.0123172
0.0503353
0.0815729
0.0991835
0.104701
0.104533
0.101409
0.0924175
0.0726811
0.0402989
-0.000149696
-0.0383946
-0.0640185
-0.0743547
-0.0756823
-0.0756823
-0.0743547
-0.0640181
-0.0383935
-0.000147935
0.0403007
0.0726822
0.0924172
0.101408
0.104531
0.1047
0.0991834
0.0815735
0.0503357
0.0123168
-0.0220123
-0.0481201
-0.0651088
-0.0721757
-0.0681405
-0.0573183
-0.0455942
-0.0347622
-0.0240563
-0.0146535
-0.00939263
-0.00675366
-0.00430635
-0.00194786
-0.00127899
-0.00174715
-0.00128823
-0.000463509
-0.000411956
-0.000705101
-0.000524159
-0.000204314
-0.000169472
-0.000292824
-0.000236935
-7.58808e-05
-0.000227567
-0.000306543
-0.00022411
-0.000149463
-2.84438e-05
-7.31106e-05
-0.000118324
-0.00012441
-8.6165e-05
5.47426e-05
0.000264471
0.000283185
-3.4142e-05
-0.000280904
-0.000379443
-0.000373887
-0.000204791
-7.60728e-05
-0.000320618
-0.000493588
-0.000302046
-0.000309127
-0.000461291
-0.000441857
-0.000269542
-0.0001887
-0.000554207
-0.001187
-0.00132587
-0.00140048
-0.00307155
-0.00571164
-0.00816051
-0.0115466
-0.0183522
-0.0286845
-0.0396149
-0.0505945
-0.0623385
-0.0726933
-0.0750814
-0.0655976
-0.0459652
-0.0185915
0.0152069
0.0514458
0.0811002
0.0986217
0.106482
0.111158
0.11318
0.106417
0.0837716
0.0447701
-0.00234182
-0.043523
-0.0673838
-0.0731711
-0.0708499
-0.0708501
-0.0731716
-0.0673839
-0.0435223
-0.00234025
0.044772
0.083773
0.106417
0.113178
0.111156
0.106481
0.0986215
0.0811011
0.0514467
0.0152071
-0.0185916
-0.0459654
-0.065598
-0.0750822
-0.0726938
-0.0623382
-0.050594
-0.039615
-0.0286848
-0.0183517
-0.0115459
-0.00816057
-0.00571215
-0.00307152
-0.00139999
-0.00132582
-0.0011873
-0.000554169
-0.000188349
-0.000269375
-0.000441982
-0.000461368
-0.000309013
-0.000302026
-0.000493764
-0.00032063
-7.5883e-05
-0.000204718
-0.000374006
-0.000379657
-0.00028105
-3.40796e-05
0.000283408
0.00026468
5.48158e-05
-0.000157065
-0.000228821
-0.000162263
-0.000265921
-0.000151443
0.000122066
-1.42303e-05
-0.000187529
-0.000236901
-0.000493588
-0.000428822
-0.000274548
-0.000592633
-0.000742836
-0.000567119
-0.00056553
-0.000838513
-0.000993396
-0.000901742
-0.000846328
-0.00157083
-0.00337536
-0.00546238
-0.00834356
-0.0133751
-0.0216433
-0.0324241
-0.0441709
-0.0563669
-0.068243
-0.077452
-0.0781703
-0.06682
-0.0447197
-0.0160343
0.0163561
0.0492054
0.0765682
0.0948412
0.106351
0.116138
0.12258
0.117298
0.0921206
0.048292
-0.0027205
-0.0445077
-0.0659825
-0.0683795
-0.0637983
-0.0637986
-0.0683803
-0.0659833
-0.0445077
-0.00271939
0.0482938
0.0921221
0.117298
0.122579
0.116136
0.106349
0.0948405
0.0765688
0.0492064
0.0163566
-0.0160342
-0.04472
-0.0668206
-0.0781714
-0.0774529
-0.0682432
-0.0563666
-0.0441708
-0.0324245
-0.0216432
-0.0133743
-0.00834293
-0.00546242
-0.00337548
-0.00157041
-0.00084585
-0.000901766
-0.000993652
-0.000838559
-0.000565411
-0.000567126
-0.000743006
-0.0005927
-0.000274404
-0.000428821
-0.000493764
-0.000236937
-0.000187451
-1.40744e-05
0.000122232
-0.000151487
-0.000266046
-0.000162309
-0.000228902
-0.000157131
-5.14566e-05
-0.000184788
-0.000189117
-0.00016039
-0.000157078
-3.6376e-05
-0.000230644
-0.000443204
-0.000292725
-0.000302046
-0.000274548
-0.000208574
-0.000466231
-0.000568368
-0.000418283
-0.000654555
-0.00119914
-0.00126872
-0.00116058
-0.00172131
-0.00311549
-0.00453235
-0.00603933
-0.00966076
-0.0159988
-0.0244308
-0.0346577
-0.0471147
-0.0603931
-0.071644
-0.0787426
-0.0777455
-0.0650992
-0.0411831
-0.0119669
0.017545
0.0452455
0.069478
0.0886721
0.10388
0.117535
0.126415
0.121218
0.0938993
0.0474013
-0.00448035
-0.0446297
-0.0635055
-0.0641643
-0.0590371
-0.0590375
-0.0641654
-0.0635068
-0.0446305
-0.00448014
0.0474024
0.0939003
0.121218
0.126414
0.117533
0.103878
0.088671
0.0694781
0.0452464
0.017546
-0.0119664
-0.0411832
-0.0650998
-0.0777463
-0.0787433
-0.0716442
-0.0603927
-0.0471141
-0.0346575
-0.0244308
-0.0159985
-0.00965998
-0.00603897
-0.00453268
-0.00311573
-0.00172106
-0.00116039
-0.00126891
-0.00119937
-0.000654497
-0.000418129
-0.000568371
-0.000466296
-0.000208486
-0.000274402
-0.000302025
-0.000292824
-0.000443353
-0.00023064
-3.62131e-05
-0.000156996
-0.000160419
-0.000189199
-0.000184894
-5.15056e-05
0.000160997
0.000108466
3.04531e-06
6.36439e-05
-0.000177797
-0.000357905
-0.000486486
-0.000474915
-0.000169642
-0.000309127
-0.000592633
-0.000466231
-0.000499583
-0.000616755
-0.000405542
-0.000489647
-0.000911262
-0.000892831
-0.000987431
-0.00208973
-0.00382436
-0.00516153
-0.00718477
-0.0122634
-0.0198576
-0.0283572
-0.038468
-0.0518661
-0.0657667
-0.0755532
-0.0795612
-0.0760842
-0.061652
-0.0359684
-0.00644229
0.0199774
0.0426023
0.0641519
0.0847422
0.103418
0.11948
0.128859
0.122661
0.0940786
0.0475423
-0.00195606
-0.0383011
-0.05452
-0.0551319
-0.0511213
-0.0511217
-0.0551331
-0.0545217
-0.0383026
-0.00195688
0.0475424
0.0940791
0.122661
0.128859
0.119479
0.103416
0.0847414
0.0641517
0.042603
0.0199787
-0.00644112
-0.0359681
-0.0616524
-0.0760849
-0.0795618
-0.0755537
-0.0657668
-0.0518655
-0.0384675
-0.0283574
-0.019858
-0.012263
-0.00718413
-0.00516158
-0.00382479
-0.00208969
-0.000987061
-0.000892712
-0.000911343
-0.000489574
-0.000405408
-0.000616738
-0.00049961
-0.000466298
-0.000592699
-0.000309013
-0.000169474
-0.000474991
-0.000486715
-0.000358022
-0.000177749
6.37383e-05
3.10692e-06
0.000108579
0.000161082
6.57596e-05
-9.07885e-05
-0.000133763
-3.48114e-05
-0.000315487
-0.000299644
-0.000131453
-0.000207029
-0.000204473
-0.000461291
-0.000742836
-0.000568368
-0.000616755
-0.000921722
-0.000814601
-0.000824244
-0.00114385
-0.00108343
-0.00117728
-0.00217528
-0.00362323
-0.004995
-0.00786686
-0.013997
-0.0223011
-0.0313277
-0.0422945
-0.0568733
-0.071273
-0.0798149
-0.0810252
-0.0749628
-0.0589737
-0.0326083
-0.00370495
0.0197297
0.0381953
0.0576558
0.0795969
0.100954
0.118083
0.126491
0.118813
0.0903405
0.0468013
0.00307094
-0.0272872
-0.0406381
-0.0424512
-0.040805
-0.0408054
-0.0424524
-0.04064
-0.0272895
0.00306897
0.0468002
0.0903402
0.118813
0.126491
0.118083
0.100954
0.0795966
0.0576555
0.0381955
0.0197307
-0.00370371
-0.0326078
-0.0589742
-0.0749636
-0.081026
-0.0798159
-0.0712737
-0.0568731
-0.0422937
-0.0313275
-0.0223014
-0.0139969
-0.00786601
-0.00499447
-0.00362336
-0.00217532
-0.00117697
-0.00108328
-0.00114396
-0.00082428
-0.000814595
-0.000921788
-0.000616741
-0.000568374
-0.000743005
-0.000461369
-0.000204314
-0.000206844
-0.000131418
-0.000299752
-0.000315573
-3.47856e-05
-0.000133738
-9.07737e-05
6.5779e-05
2.63389e-05
-0.000201913
-0.00025287
-0.000175536
-0.000440557
-0.000171424
6.11071e-05
-0.000401006
-0.000524002
-0.000441857
-0.000567119
-0.000418283
-0.000405542
-0.000814601
-0.000951352
-0.00102954
-0.00136768
-0.00163226
-0.00211691
-0.00306524
-0.00434595
-0.00618891
-0.00984868
-0.0160921
-0.024292
-0.0339033
-0.0456642
-0.0604195
-0.0743192
-0.081461
-0.079931
-0.0710365
-0.0539987
-0.0285397
-0.0015165
0.0191708
0.0342032
0.0512082
0.0729828
0.0951379
0.111542
0.117325
0.107414
0.0799558
0.0418745
0.0065974
-0.0161485
-0.0265129
-0.0303127
-0.0317701
-0.0317705
-0.0303139
-0.0265153
-0.0161517
0.00659409
0.041872
0.0799545
0.107414
0.117325
0.111542
0.0951385
0.0729831
0.0512081
0.0342031
0.0191713
-0.0015155
-0.028539
-0.0539988
-0.0710369
-0.0799315
-0.0814618
-0.07432
-0.0604195
-0.0456633
-0.0339026
-0.024292
-0.0160922
-0.0098482
-0.0061883
-0.00434591
-0.0030655
-0.00211691
-0.00163213
-0.00136774
-0.00102964
-0.000951376
-0.000814593
-0.000405409
-0.000418128
-0.000567123
-0.000441983
-0.000524159
-0.000400979
6.13714e-05
-0.000171325
-0.000440682
-0.000175588
-0.000252913
-0.000201984
2.63234e-05
9.18895e-05
-0.000172184
-0.000246935
1.49723e-05
-0.000214128
-0.000158162
-0.000249426
-0.000880451
-0.000704921
-0.000269542
-0.00056553
-0.000654555
-0.000489647
-0.000824244
-0.00102954
-0.00084607
-0.00100135
-0.00173496
-0.00262588
-0.00343397
-0.00494914
-0.00793395
-0.0126086
-0.0188737
-0.0272897
-0.0382012
-0.0509214
-0.0650862
-0.0776339
-0.0830649
-0.0785506
-0.0663707
-0.0482784
-0.0242853
0.000957326
0.0202641
0.0331758
0.0475454
0.067768
0.0893366
0.103947
0.106154
0.0935741
0.0680118
0.0374652
0.0127657
-0.00119147
-0.00833405
-0.0142408
-0.0188869
-0.0188873
-0.0142422
-0.00833678
-0.00119544
0.0127612
0.0374614
0.0680096
0.0935736
0.106155
0.103948
0.089338
0.067769
0.0475459
0.033176
0.0202645
0.000957924
-0.0242847
-0.048278
-0.0663705
-0.0785508
-0.0830657
-0.0776348
-0.0650866
-0.0509209
-0.0382004
-0.0272894
-0.018874
-0.0126087
-0.00793352
-0.00494876
-0.0034341
-0.00262612
-0.00173482
-0.00100106
-0.000845998
-0.00102963
-0.000824278
-0.000489576
-0.000654495
-0.000565409
-0.000269379
-0.000705102
-0.000880791
-0.000249388
-0.000158
-0.000214074
1.50406e-05
-0.000247003
-0.000172248
9.19287e-05
0.000173717
-6.77709e-05
-0.000171774
0.000153769
-0.000258393
-0.000515939
-0.000421265
-0.000629993
-0.000412148
-0.0001887
-0.000838513
-0.00119914
-0.000911262
-0.00114385
-0.00136768
-0.00100135
-0.00118533
-0.00222041
-0.00288067
-0.00324596
-0.0052011
-0.00929087
-0.0145976
-0.0208705
-0.0301084
-0.0429804
-0.0568971
-0.0703108
-0.081316
-0.0852877
-0.0784319
-0.0635448
-0.0447569
-0.02237
0.00147548
0.0203676
0.0318689
0.0432464
0.0608818
0.0810421
0.0934183
0.0916848
0.0764397
0.0537578
0.0325209
0.0199796
0.0156265
0.0121612
0.00477074
-0.00247339
-0.00247393
0.004769
0.0121581
0.0156219
0.0199742
0.032516
0.0537547
0.0764389
0.0916858
0.0934202
0.081044
0.0608834
0.0432477
0.0318698
0.0203681
0.00147555
-0.02237
-0.0447567
-0.0635444
-0.078432
-0.0852884
-0.081317
-0.0703116
-0.0568973
-0.0429798
-0.0301076
-0.0208703
-0.014598
-0.00929071
-0.00520031
-0.0032455
-0.00288091
-0.00222058
-0.001185
-0.00100106
-0.00136774
-0.00114396
-0.000911348
-0.00119937
-0.000838558
-0.000188352
-0.000411953
-0.000630145
-0.0004214
-0.000516064
-0.00025838
0.000153977
-0.000171776
-6.77696e-05
0.000173824
0.000227441
6.01151e-05
-0.000213643
-0.000119537
-0.000570807
-0.000769911
-0.000236476
-0.000162309
-0.000463736
-0.000554207
-0.000993396
-0.00126872
-0.000892831
-0.00108343
-0.00163226
-0.00173496
-0.00222041
-0.00322906
-0.00362122
-0.00422179
-0.00699231
-0.0115425
-0.0167187
-0.0229683
-0.0331703
-0.0475207
-0.0618931
-0.0739606
-0.0829929
-0.085717
-0.0775311
-0.0609982
-0.0417881
-0.0209315
0.00123162
0.0191271
0.0285839
0.0361942
0.0502057
0.0679798
0.0773651
0.0712052
0.0532716
0.0341537
0.0232278
0.0234468
0.0288285
0.029449
0.0216728
0.0128996
0.0128989
0.0216706
0.0294453
0.0288234
0.0234407
0.023222
0.0341497
0.0532702
0.0712061
0.0773672
0.0679819
0.0502074
0.0361957
0.0285854
0.0191281
0.00123155
-0.0209321
-0.0417884
-0.060998
-0.0775308
-0.0857172
-0.0829934
-0.0739613
-0.0618937
-0.0475204
-0.0331691
-0.0229674
-0.0167189
-0.0115429
-0.00699188
-0.00422097
-0.00362111
-0.0032295
-0.00222058
-0.00173482
-0.00163213
-0.00108328
-0.000892716
-0.00126891
-0.000993653
-0.000554171
-0.000463504
-0.000162033
-0.000236355
-0.000770168
-0.00057102
-0.000119457
-0.000213649
6.02061e-05
0.000227607
-2.17365e-06
-0.000241226
-0.000518728
-0.000387618
-0.000304897
-0.000387449
-0.000146444
-0.000423125
-0.00128793
-0.001187
-0.000901742
-0.00116058
-0.000987431
-0.00117728
-0.00211691
-0.00262588
-0.00288067
-0.00362122
-0.00449951
-0.00627115
-0.00975299
-0.0141685
-0.0195278
-0.026881
-0.0385691
-0.0537929
-0.0679889
-0.078474
-0.085389
-0.0869296
-0.0778697
-0.0597348
-0.0389995
-0.0186028
0.00176956
0.0178343
0.0250406
0.0292414
0.0396397
0.0544146
0.0601587
0.0494554
0.0292549
0.0143505
0.0140135
0.0266197
0.0411638
0.0461195
0.0392711
0.0302884
0.0302874
0.0392684
0.0461153
0.0411584
0.0266135
0.0140072
0.0143458
0.029253
0.0494562
0.0601611
0.054417
0.0396414
0.0292431
0.0250426
0.0178362
0.00177017
-0.0186034
-0.0390003
-0.0597351
-0.0778696
-0.0869293
-0.0853888
-0.0784743
-0.0679898
-0.0537934
-0.0385682
-0.0268796
-0.0195273
-0.014169
-0.00975337
-0.00627067
-0.00449886
-0.00362111
-0.00288092
-0.00262612
-0.00211691
-0.00117697
-0.00098706
-0.00116039
-0.00090177
-0.00118731
-0.00128823
-0.000422991
-0.000146096
-0.000387335
-0.000304914
-0.000387664
-0.000518924
-0.000241305
-2.10943e-06
-0.000228892
-0.000326542
-0.000389201
-0.000283286
9.72143e-05
-0.000399418
-0.000840216
-0.00105542
-0.00174675
-0.00132587
-0.000846328
-0.00172131
-0.00208973
-0.00217528
-0.00306524
-0.00343397
-0.00324596
-0.00422179
-0.00627115
-0.0090251
-0.0123572
-0.0166246
-0.023323
-0.0328631
-0.0459142
-0.0611194
-0.0748905
-0.0843455
-0.0897717
-0.0904288
-0.0806965
-0.0606851
-0.0375568
-0.0173438
0.000168218
0.0130913
0.0181873
0.020041
0.0272536
0.0383548
0.0399404
0.0251894
0.00389265
-0.00600541
0.00402005
0.027921
0.0506238
0.0600584
0.0555064
0.0476803
0.0476791
0.0555031
0.0600539
0.0506185
0.0279151
0.00401392
-0.0060105
0.00389001
0.0251897
0.0399427
0.0383574
0.0272554
0.0200426
0.0181893
0.0130937
0.000169831
-0.0173436
-0.0375576
-0.0606861
-0.0806971
-0.0904286
-0.0897709
-0.0843451
-0.0748912
-0.0611204
-0.0459144
-0.032862
-0.0233218
-0.0166243
-0.0123577
-0.00902541
-0.00627067
-0.00422097
-0.0032455
-0.0034341
-0.0030655
-0.00217533
-0.00208969
-0.00172106
-0.000845855
-0.00132582
-0.00174715
-0.00105567
-0.000840234
-0.000399245
9.75033e-05
-0.000283179
-0.0003893
-0.000326665
-0.000228936
-0.000155826
0.000248369
0.000150146
-0.000526409
-0.000473443
-0.0013101
-0.00168188
-0.000943606
-0.00127927
-0.00140048
-0.00157083
-0.00311549
-0.00382436
-0.00362323
-0.00434595
-0.00494914
-0.0052011
-0.00699231
-0.00975299
-0.0123572
-0.0150856
-0.0199951
-0.0287927
-0.0402328
-0.0535861
-0.0680448
-0.0818517
-0.0915182
-0.0964608
-0.0963205
-0.0856717
-0.0636969
-0.0384643
-0.0194317
-0.00636867
0.00241179
0.00605886
0.00687757
0.0112192
0.0178565
0.0150758
-0.00250964
-0.0231376
-0.0272848
-0.00770538
0.025756
0.05523
0.0690388
0.0678834
0.0623527
0.0623514
0.06788
0.0690343
0.0552251
0.0257507
-0.00771096
-0.0272899
-0.023141
-0.00251034
0.0150773
0.017859
0.0112211
0.00687893
0.00606037
0.00241384
-0.00636656
-0.0194304
-0.0384644
-0.0636984
-0.0856734
-0.0963211
-0.0964601
-0.0915172
-0.0818514
-0.0680454
-0.0535869
-0.0402326
-0.0287914
-0.0199936
-0.0150851
-0.0123577
-0.00975337
-0.00699188
-0.00520031
-0.00494875
-0.00434591
-0.00362337
-0.0038248
-0.00311573
-0.00157042
-0.00139998
-0.00127899
-0.000943531
-0.00168222
-0.00131035
-0.000473383
-0.000526334
0.000150371
0.00024856
-0.000155825
-0.000368593
1.7401e-05
-0.000253784
-0.00136469
-0.00101391
-0.00150013
-0.00179298
-0.000984686
-0.00194827
-0.00307155
-0.00337536
-0.00453235
-0.00516153
-0.004995
-0.00618891
-0.00793395
-0.00929087
-0.0115425
-0.0141685
-0.0166246
-0.0199951
-0.026824
-0.0375757
-0.0498258
-0.0626939
-0.0765342
-0.0911141
-0.101642
-0.105908
-0.103571
-0.0907072
-0.0666679
-0.0403689
-0.0237073
-0.0158344
-0.0111206
-0.00796624
-0.00734361
-0.00608763
-0.00482044
-0.0118918
-0.0308089
-0.0490873
-0.0473518
-0.0198775
0.0206889
0.0550468
0.0726052
0.0753075
0.072713
0.0727117
0.0753042
0.072601
0.0550425
0.0206845
-0.0198821
-0.0473565
-0.0490912
-0.0308108
-0.0118915
-0.0048186
-0.00608556
-0.00734203
-0.00796504
-0.0111192
-0.0158323
-0.023705
-0.0403675
-0.0666687
-0.0907093
-0.103573
-0.105909
-0.101641
-0.0911128
-0.0765336
-0.0626943
-0.0498265
-0.0375755
-0.0268226
-0.0199936
-0.0166243
-0.014169
-0.0115429
-0.00929072
-0.00793352
-0.0061883
-0.00499448
-0.00516158
-0.00453269
-0.00337549
-0.00307152
-0.00194786
-0.000984106
-0.00179296
-0.00150026
-0.00101398
-0.00136492
-0.000253663
1.75588e-05
-0.00036867
-0.000781385
-0.000747165
-0.000961254
-0.00191455
-0.0010945
-0.00146972
-0.0025295
-0.0026785
-0.00430618
-0.00571164
-0.00546238
-0.00603933
-0.00718477
-0.00786686
-0.00984868
-0.0126086
-0.0145976
-0.0167187
-0.0195278
-0.023323
-0.0287927
-0.0375757
-0.0489716
-0.0610601
-0.0736857
-0.0878655
-0.103794
-0.115032
-0.117671
-0.111636
-0.0960157
-0.0711303
-0.045816
-0.032441
-0.0293279
-0.0277315
-0.0242987
-0.0234999
-0.0253563
-0.0293876
-0.0395721
-0.0576381
-0.0717078
-0.0640766
-0.0304747
0.0147632
0.0521478
0.0725663
0.0790154
0.079492
0.079491
0.0790126
0.0725628
0.0521445
0.01476
-0.0304782
-0.0640806
-0.0717119
-0.0576412
-0.0395734
-0.029387
-0.0253546
-0.023498
-0.0242974
-0.0277307
-0.0293265
-0.0324385
-0.0458134
-0.0711295
-0.0960171
-0.111638
-0.117672
-0.115032
-0.103793
-0.0878639
-0.0736851
-0.0610608
-0.0489725
-0.0375755
-0.0287914
-0.0233218
-0.0195273
-0.0167189
-0.014598
-0.0126087
-0.0098482
-0.00786601
-0.00718413
-0.00603897
-0.00546243
-0.00571215
-0.00430636
-0.00267812
-0.00252923
-0.00146935
-0.00109424
-0.00191481
-0.000961291
-0.000747236
-0.000781615
-0.000835786
-0.000855587
-0.00104668
-0.00221298
-0.00190656
-0.00287517
-0.00480882
-0.00545792
-0.00675347
-0.00816051
-0.00834356
-0.00966076
-0.0122634
-0.013997
-0.0160921
-0.0188737
-0.0208705
-0.0229683
-0.026881
-0.0328631
-0.0402328
-0.0498258
-0.0610601
-0.0736597
-0.087713
-0.103603
-0.120842
-0.131753
-0.131464
-0.120811
-0.102797
-0.0786467
-0.0556452
-0.0448708
-0.0445995
-0.0446611
-0.0405987
-0.0394548
-0.0437949
-0.0518961
-0.063331
-0.078423
-0.0869134
-0.0737797
-0.0359781
0.0115088
0.0499744
0.0719514
0.081352
0.0844861
0.0844854
0.0813503
0.0719493
0.0499724
0.0115069
-0.0359803
-0.0737827
-0.0869171
-0.0784268
-0.063334
-0.0518973
-0.0437941
-0.0394529
-0.0405971
-0.0446604
-0.0445988
-0.044869
-0.0556425
-0.0786448
-0.102797
-0.120813
-0.131466
-0.131755
-0.120842
-0.103601
-0.0877114
-0.0736593
-0.0610608
-0.0498266
-0.0402326
-0.032862
-0.0268796
-0.0229674
-0.0208704
-0.018874
-0.0160922
-0.0139969
-0.012263
-0.00965998
-0.00834294
-0.00816057
-0.00675367
-0.00545798
-0.00480888
-0.00287477
-0.00190607
-0.00221297
-0.00104652
-0.000855594
-0.000836022
-0.000670461
-0.000797217
-0.00142515
-0.00342978
-0.00439301
-0.00589674
-0.00796372
-0.0085426
-0.00939319
-0.0115466
-0.0133751
-0.0159988
-0.0198576
-0.0223011
-0.024292
-0.0272897
-0.0301084
-0.0331703
-0.0385691
-0.0459142
-0.0535861
-0.0626939
-0.0736857
-0.087713
-0.10395
-0.121227
-0.138058
-0.146801
-0.142794
-0.128122
-0.109299
-0.0875763
-0.0675429
-0.0582445
-0.0593312
-0.0607268
-0.0568008
-0.0554169
-0.0610546
-0.0713315
-0.0821908
-0.0928348
-0.0950674
-0.0770704
-0.0368629
0.0107037
0.0483762
0.0703722
0.0814529
0.0864403
0.0864402
0.0814525
0.0703717
0.0483757
0.0107031
-0.0368641
-0.0770724
-0.0950705
-0.0928389
-0.0821951
-0.0713348
-0.0610557
-0.055416
-0.0567991
-0.0607258
-0.0593308
-0.0582437
-0.0675411
-0.0875742
-0.109298
-0.128123
-0.142796
-0.146804
-0.138059
-0.121226
-0.103948
-0.0877114
-0.0736851
-0.0626943
-0.0535868
-0.0459144
-0.0385682
-0.0331691
-0.0301076
-0.0272894
-0.024292
-0.0223015
-0.019858
-0.0159985
-0.0133743
-0.0115459
-0.00939264
-0.00854246
-0.00796402
-0.00589676
-0.00439281
-0.00342969
-0.00142471
-0.000796953
-0.000670572
-0.000916724
-0.0020672
-0.00356277
-0.00611137
-0.00788343
-0.00932026
-0.0113984
-0.0128927
-0.0146543
-0.0183522
-0.0216433
-0.0244308
-0.0283572
-0.0313277
-0.0339033
-0.0382012
-0.0429804
-0.0475207
-0.0537929
-0.0611194
-0.0680448
-0.0765342
-0.0878655
-0.103603
-0.121227
-0.138039
-0.152036
-0.157172
-0.149783
-0.132625
-0.114188
-0.0950123
-0.0770689
-0.0677118
-0.0691267
-0.0718978
-0.0685601
-0.0660923
-0.0708455
-0.0809541
-0.0898009
-0.0953195
-0.0912357
-0.0691295
-0.0281326
0.0175411
0.0525678
0.0728819
0.0840888
0.0899046
0.089905
0.0840898
0.0728832
0.052569
0.0175418
-0.0281326
-0.0691306
-0.091238
-0.0953232
-0.0898058
-0.0809589
-0.0708487
-0.0660932
-0.0685592
-0.0718965
-0.0691258
-0.0677114
-0.0770683
-0.095011
-0.114186
-0.132624
-0.149783
-0.157174
-0.152039
-0.13804
-0.121226
-0.103601
-0.0878639
-0.0765336