/*--------------------------------*- C++ -*----------------------------------*\
  =========                 |
  \\      /  F ield         | OpenFOAM: The Open Source CFD Toolbox
   \\    /   O peration     | Website:  https://openfoam.org
    \\  /    A nd           | Version:  10
     \\/     M anipulation  |
\*---------------------------------------------------------------------------*/
FoamFile
{
    format      ascii;
    class       volScalarField;
    location    "19";
    object      h;
}
// * * * * * * * * * * * * * * * * * * * * * * * * * * * * * * * * * * * * * //

dimensions      [0 1 0 0 0 0 0];

internalField   nonuniform List<scalar> 
10000
(
-0.00446247
-0.0125082
-0.0181909
-0.0208761
-0.0212267
-0.0210787
-0.0224612
-0.0261861
-0.0310361
-0.0343433
-0.0336952
-0.028553
-0.0205901
-0.0125226
-0.00631069
-0.00203831
0.00174727
0.00657826
0.0126849
0.0187385
0.0227689
0.0234071
0.0205558
0.0152245
0.00887144
0.00275341
-0.00241024
-0.00642164
-0.00938301
-0.0114549
-0.0127095
-0.0131036
-0.0125366
-0.0109344
-0.00831412
-0.00480811
-0.000648271
0.00387504
0.00846184
0.0128454
0.0168206
0.0202567
0.0230954
0.0253402
0.0270395
0.0282693
0.0291166
0.029666
0.0299891
0.0301374
0.0301376
0.0299897
0.0296669
0.0291178
0.0282708
0.0270412
0.025342
0.0230972
0.0202583
0.0168219
0.0128463
0.00846216
0.00387469
-0.000649301
-0.00480977
-0.00831628
-0.0109369
-0.0125392
-0.0131061
-0.0127119
-0.0114571
-0.00938503
-0.0064235
-0.0024118
0.00275249
0.0088716
0.0152261
0.0205588
0.023411
0.0227726
0.018741
0.0126858
0.00657804
0.00174705
-0.00203774
-0.00630954
-0.012522
-0.0205911
-0.028556
-0.0336992
-0.0343466
-0.0310374
-0.0261855
-0.0224598
-0.0210778
-0.0212271
-0.0208776
-0.0181927
-0.0125095
-0.00446295
-0.0125082
-0.0350606
-0.0511983
-0.0596673
-0.0626897
-0.0649369
-0.0706888
-0.0807487
-0.0914382
-0.0967428
-0.092238
-0.0779694
-0.0582603
-0.0387116
-0.0226403
-0.0095199
0.00356893
0.018818
0.0354823
0.0501676
0.0590053
0.0598266
0.0529664
0.0406671
0.0258735
0.011186
-0.00165646
-0.0117841
-0.0189347
-0.0231652
-0.0246602
-0.0236583
-0.0204551
-0.0154243
-0.00902126
-0.00175837
0.00584246
0.0133022
0.0202284
0.026342
0.0314841
0.0356068
0.0387522
0.0410271
0.0425764
0.0435597
0.0441326
0.0444324
0.0445689
0.0446179
0.0446182
0.0445696
0.0444336
0.0441343
0.0435618
0.0425789
0.04103
0.0387552
0.0356098
0.031487
0.0263445
0.0202303
0.0133032
0.0058425
-0.00175948
-0.00902353
-0.0154276
-0.0204594
-0.0236633
-0.0246656
-0.0231708
-0.0189401
-0.0117891
-0.0016604
0.0111838
0.0258739
0.0406707
0.0529731
0.0598354
0.0590143
0.0501746
0.035486
0.0188188
0.0035686
-0.00951953
-0.022639
-0.038711
-0.0582626
-0.0779757
-0.0922467
-0.0967509
-0.0914427
-0.0807489
-0.0706865
-0.064935
-0.0626903
-0.0596707
-0.0512028
-0.0350643
-0.0125095
-0.0181909
-0.0511983
-0.0758817
-0.0916387
-0.102107
-0.11229
-0.12472
-0.137442
-0.145336
-0.143723
-0.131456
-0.111383
-0.0881796
-0.0653607
-0.0436181
-0.0215913
0.00177289
0.0254327
0.046511
0.0620227
0.0703418
0.0714471
0.0663543
0.0565523
0.0437408
0.029723
0.0162798
0.00496201
-0.00315722
-0.00764679
-0.00872038
-0.00709236
-0.00374508
0.000312932
0.00423234
0.00742564
0.00958883
0.0106626
0.0107634
0.0101068
0.00894226
0.00750573
0.00599195
0.00454401
0.00325427
0.00217287
0.00131896
0.000692408
0.000283925
8.29508e-05
8.29017e-05
0.000283785
0.000692201
0.00131873
0.00217266
0.00325416
0.00454408
0.00599229
0.00750643
0.00894337
0.0101084
0.0107653
0.0106648
0.00959106
0.00742757
0.00423358
0.00031307
-0.00374635
-0.00709516
-0.00872457
-0.00765191
-0.00316255
0.00495731
0.0162765
0.0297218
0.043742
0.0565559
0.0663602
0.0714548
0.0703506
0.0620312
0.0465178
0.0254365
0.0017738
-0.0215921
-0.0436193
-0.065362
-0.0881821
-0.111388
-0.131464
-0.143732
-0.145344
-0.137446
-0.124721
-0.112289
-0.102108
-0.0916417
-0.0758866
-0.0512028
-0.0181927
-0.0208761
-0.0596673
-0.0916387
-0.117257
-0.139673
-0.160731
-0.178413
-0.188114
-0.186436
-0.173926
-0.154532
-0.132674
-0.110511
-0.0873635
-0.061567
-0.033183
-0.00509021
0.0187149
0.0359477
0.0472017
0.0546393
0.0599346
0.0633944
0.0644697
0.0626753
0.0581488
0.0516786
0.044338
0.0370458
0.0303208
0.0242635
0.0186926
0.0133397
0.00800254
0.00261997
-0.00272464
-0.00785039
-0.0125432
-0.0166118
-0.0199276
-0.0224394
-0.0241712
-0.0252086
-0.0256772
-0.0257238
-0.0254974
-0.0251361
-0.0247575
-0.0244534
-0.0242857
-0.0242858
-0.0244539
-0.0247585
-0.0251374
-0.025499
-0.0257258
-0.0256795
-0.0252111
-0.0241739
-0.022442
-0.0199302
-0.016614
-0.0125449
-0.00785156
-0.00272521
0.00261993
0.00800288
0.0133402
0.018693
0.0242638
0.030321
0.0370461
0.0443387
0.0516802
0.0581513
0.0626784
0.064473
0.0633975
0.0599376
0.0546428
0.0472064
0.0359536
0.0187205
-0.0050868
-0.0331829
-0.0615694
-0.0873665
-0.110513
-0.132677
-0.154536
-0.173933
-0.186445
-0.188123
-0.178419
-0.160734
-0.139674
-0.117259
-0.0916417
-0.0596706
-0.0208776
-0.0212267
-0.0626897
-0.102107
-0.139673
-0.17465
-0.203352
-0.220354
-0.222388
-0.211101
-0.191957
-0.170483
-0.149143
-0.126912
-0.101535
-0.0727755
-0.0439144
-0.0197335
-0.00272462
0.00860001
0.0178435
0.0277381
0.0389145
0.0506081
0.0616738
0.0710145
0.0776726
0.0808596
0.0800038
0.0749148
0.0659378
0.0539404
0.0401638
0.0259875
0.0126747
0.00119033
-0.00788539
-0.0143579
-0.018347
-0.0201885
-0.0203323
-0.0192546
-0.0173997
-0.0151425
-0.0127767
-0.010516
-0.00850481
-0.00683358
-0.0055537
-0.0046915
-0.00425839
-0.00425841
-0.00469155
-0.00555383
-0.00683384
-0.00850528
-0.0105168
-0.0127779
-0.0151442
-0.0174021
-0.0192577
-0.0203362
-0.020193
-0.0183521
-0.0143631
-0.00789042
0.00118609
0.0126718
0.0259865
0.0401649
0.0539436
0.0659428
0.074921
0.0800105
0.080866
0.0776782
0.0710187
0.0616766
0.0506093
0.0389143
0.027737
0.0178429
0.00860138
-0.00272097
-0.0197291
-0.0439116
-0.0727757
-0.101538
-0.126915
-0.149145
-0.170486
-0.191961
-0.211109
-0.222398
-0.220365
-0.20336
-0.174654
-0.139674
-0.102108
-0.0626903
-0.0212271
-0.0210787
-0.0649369
-0.11229
-0.160731
-0.203352
-0.231967
-0.242215
-0.236288
-0.220818
-0.202132
-0.183033
-0.162771
-0.139239
-0.11194
-0.0837552
-0.0593991
-0.0415083
-0.0286659
-0.0175368
-0.00610708
0.00568586
0.0175584
0.0298554
0.0429116
0.0562401
0.0685195
0.0780516
0.0834047
0.0839893
0.0801712
0.0730219
0.0639525
0.0543267
0.0451994
0.0372274
0.0306833
0.025548
0.0216319
0.0186683
0.0163935
0.0145868
0.0130855
0.0117882
0.0106391
0.00962067
0.00873438
0.00799534
0.00742073
0.00702751
0.00682764
0.00682767
0.0070276
0.00742089
0.00799554
0.00873463
0.00962094
0.0106394
0.0117883
0.0130855
0.0145866
0.016393
0.0186674
0.0216306
0.0255463
0.0306814
0.0372256
0.0451981
0.0543264
0.0639538
0.0730249
0.0801759
0.0839953
0.0834111
0.0780574
0.0685239
0.0562426
0.0429126
0.0298553
0.0175578
0.00568493
-0.00610838
-0.0175379
-0.0286655
-0.0415057
-0.0593955
-0.083753
-0.111941
-0.139242
-0.162774
-0.183036
-0.202135
-0.220823
-0.236297
-0.242226
-0.231979
-0.20336
-0.160734
-0.112289
-0.0649349
-0.0210777
-0.0224612
-0.0706888
-0.12472
-0.178413
-0.220354
-0.242215
-0.244422
-0.234334
-0.219855
-0.204949
-0.189483
-0.171335
-0.149019
-0.123984
-0.100277
-0.0808547
-0.0648803
-0.0497887
-0.0350062
-0.0221172
-0.0119903
-0.00336732
0.00560035
0.0156386
0.0264182
0.0372604
0.0475217
0.0569041
0.0654217
0.0730524
0.0796081
0.084744
0.0880268
0.0891082
0.0878442
0.084323
0.078861
0.0719283
0.0640578
0.0557835
0.047565
0.0397727
0.0326673
0.0264118
0.0210902
0.0167234
0.013298
0.0107776
0.00912485
0.00830698
0.00830688
0.00912454
0.0107771
0.0132974
0.0167228
0.0210897
0.0264115
0.0326672
0.0397732
0.0475662
0.0557854
0.0640606
0.0719319
0.0788653
0.0843278
0.0878492
0.089113
0.0880311
0.0847475
0.0796107
0.0730543
0.0654231
0.0569052
0.0475225
0.0372608
0.026418
0.0156377
0.00559923
-0.00336791
-0.0119898
-0.022116
-0.0350054
-0.0497885
-0.0648798
-0.080853
-0.100275
-0.123984
-0.149021
-0.171339
-0.189486
-0.204951
-0.219857
-0.234338
-0.24443
-0.242226
-0.220365
-0.178419
-0.124721
-0.0706864
-0.0224598
-0.0261861
-0.0807487
-0.137442
-0.188114
-0.222388
-0.236288
-0.234334
-0.224375
-0.212162
-0.199961
-0.187309
-0.172272
-0.154109
-0.135205
-0.11853
-0.103663
-0.0878943
-0.0707712
-0.0548228
-0.0418842
-0.031113
-0.0210863
-0.011936
-0.00438943
0.00187613
0.00803316
0.0153981
0.025002
0.0369523
0.0503775
0.06394
0.0762072
0.0860235
0.0927583
0.096274
0.096833
0.094974
0.0913232
0.0865132
0.0811009
0.0755215
0.0701135
0.065092
0.060607
0.0567314
0.0535063
0.0509393
0.0490277
0.0477612
0.0471307
0.0471307
0.0477611
0.0490275
0.0509391
0.0535061
0.0567312
0.060607
0.0650923
0.0701141
0.0755226
0.0811026
0.0865158
0.0913266
0.0949784
0.0968381
0.0962797
0.092764
0.0860286
0.0762112
0.0639423
0.0503779
0.0369509
0.0249994
0.0153953
0.00803104
0.00187507
-0.00438957
-0.0119358
-0.0210862
-0.0311127
-0.041883
-0.0548211
-0.0707704
-0.0878947
-0.103664
-0.11853
-0.135205
-0.154112
-0.172276
-0.187312
-0.199963
-0.212163
-0.224377
-0.234338
-0.236297
-0.222398
-0.188123
-0.137446
-0.0807488
-0.0261855
-0.0310361
-0.0914382
-0.145336
-0.186436
-0.211101
-0.220818
-0.219855
-0.212162
-0.201064
-0.189154
-0.176791
-0.163089
-0.149558
-0.139526
-0.132799
-0.124893
-0.112884
-0.0982571
-0.0831031
-0.0672166
-0.0503938
-0.0349221
-0.0235822
-0.0164884
-0.011726
-0.00748083
-0.00238717
0.00418789
0.0118948
0.02019
0.0286645
0.0369918
0.0450761
0.0529128
0.0604367
0.067571
0.074184
0.0800983
0.085204
0.0893946
0.0926609
0.0950447
0.0966357
0.0975795
0.0980128
0.0981045
0.097984
0.0977848
0.0975946
0.0974843
0.0974845
0.0975951
0.0977856
0.0979851
0.0981059
0.0980145
0.0975813
0.0966376
0.0950467
0.0926628
0.0893964
0.0852056
0.0800995
0.0741849
0.0675716
0.0604371
0.052913
0.0450763
0.0369919
0.0286645
0.0201896
0.0118938
0.00418632
-0.00238898
-0.00748216
-0.0117262
-0.016487
-0.0235796
-0.0349197
-0.0503931
-0.0672173
-0.0831042
-0.0982584
-0.112886
-0.124895
-0.1328
-0.139525
-0.149559
-0.163091
-0.176794
-0.189156
-0.201065
-0.212163
-0.219857
-0.220823
-0.211109
-0.186445
-0.145344
-0.0914426
-0.0310374
-0.0343433
-0.0967428
-0.143723
-0.173926
-0.191957
-0.202132
-0.204949
-0.199961
-0.189154
-0.175141
-0.15922
-0.144495
-0.136797
-0.137882
-0.141523
-0.140604
-0.133989
-0.123475
-0.109074
-0.0907818
-0.0716882
-0.0557893
-0.0436649
-0.0332995
-0.0239922
-0.0162514
-0.0102239
-0.0061734
-0.00393465
-0.00242934
-0.000611419
0.00236479
0.00709578
0.0136232
0.0216404
0.0306977
0.0401812
0.0495726
0.0584609
0.0665062
0.0735877
0.0795923
0.0845759
0.0885847
0.0917343
0.0941369
0.0959009
0.097133
0.0979051
0.0982789
0.098279
0.0979056
0.0971337
0.0959019
0.0941382
0.0917359
0.0885864
0.0845777
0.079594
0.0735892
0.0665074
0.0584616
0.0495726
0.0401805
0.0306961
0.021638
0.0136202
0.00709259
0.00236183
-0.000613632
-0.00243048
-0.0039346
-0.00617239
-0.0102226
-0.0162501
-0.0239911
-0.0332984
-0.0436632
-0.0557868
-0.0716864
-0.0907824
-0.109077
-0.123479
-0.133993
-0.140609
-0.141527
-0.137882
-0.136794
-0.144492
-0.15922
-0.175142
-0.189156
-0.199963
-0.204951
-0.202135
-0.191961
-0.173933
-0.143732
-0.0967508
-0.0343466
-0.0336952
-0.092238
-0.131456
-0.154532
-0.170483
-0.183033
-0.189483
-0.187309
-0.176791
-0.15922
-0.138983
-0.125573
-0.125571
-0.133935
-0.140377
-0.141302
-0.138902
-0.133579
-0.12415
-0.112067
-0.100276
-0.0887022
-0.0747174
-0.0585773
-0.0435271
-0.0312253
-0.022078
-0.0163816
-0.0130213
-0.0107302
-0.00891374
-0.00691507
-0.00443447
-0.00150098
0.00195324
0.00588577
0.0101499
0.0147611
0.0195292
0.0243763
0.0291861
0.0337844
0.0381342
0.0420543
0.0455495
0.0484928
0.0509011
0.0527081
0.0539276
0.0545347
0.0545348
0.0539276
0.0527081
0.0509012
0.0484928
0.0455494
0.0420542
0.038134
0.0337841
0.0291856
0.0243757
0.0195285
0.0147602
0.010149
0.00588468
0.00195202
-0.00150228
-0.00443578
-0.0069163
-0.0089146
-0.0107304
-0.0130206
-0.0163798
-0.0220754
-0.0312228
-0.0435251
-0.0585769
-0.0747187
-0.0887037
-0.100277
-0.112068
-0.124152
-0.133582
-0.138905
-0.141306
-0.140382
-0.133937
-0.125567
-0.125567
-0.13898
-0.15922
-0.176794
-0.187312
-0.189486
-0.183036
-0.170486
-0.154536
-0.131464
-0.0922467
-0.0336992
-0.028553
-0.0779694
-0.111383
-0.132674
-0.149143
-0.162771
-0.171335
-0.172272
-0.163089
-0.144495
-0.125573
-0.117617
-0.120431
-0.123981
-0.123856
-0.124204
-0.127067
-0.12968
-0.130415
-0.129825
-0.126788
-0.118014
-0.103429
-0.0876923
-0.0733033
-0.0594886
-0.0469169
-0.035921
-0.0258902
-0.0175608
-0.0112858
-0.00681277
-0.00417882
-0.00300317
-0.00267964
-0.00292038
-0.00328051
-0.00342692
-0.00335756
-0.00279832
-0.00194411
-0.000714058
0.00073024
0.00229205
0.00389875
0.00537902
0.00671718
0.00776002
0.00851112
0.00888513
0.00888503
0.00851083
0.00775954
0.00671651
0.00537816
0.00389773
0.00229086
0.00072894
-0.000715435
-0.00194549
-0.00279962
-0.0033587
-0.00342775
-0.00328096
-0.00292033
-0.00267903
-0.00300205
-0.00417721
-0.00681089
-0.0112839
-0.0175591
-0.0258888
-0.0359201
-0.046916
-0.0594879
-0.0733028
-0.0876922
-0.103431
-0.118018
-0.126792
-0.129828
-0.130416
-0.129682
-0.127067
-0.124205
-0.123858
-0.123985
-0.120431
-0.117612
-0.125567
-0.144492
-0.163091
-0.172276
-0.171339
-0.162774
-0.149145
-0.132677
-0.111388
-0.0779757
-0.028556
-0.0205901
-0.0582603
-0.0881796
-0.110511
-0.126912
-0.139239
-0.149019
-0.154109
-0.149558
-0.136797
-0.125571
-0.120431
-0.114793
-0.105156
-0.0987718
-0.101249
-0.109316
-0.118381
-0.126842
-0.133162
-0.134429
-0.129585
-0.122446
-0.115562
-0.106006
-0.0932954
-0.0798019
-0.0654278
-0.0512755
-0.0391317
-0.0288117
-0.0206045
-0.0147168
-0.0105876
-0.00798717
-0.00674924
-0.00620789
-0.00632687
-0.0067159
-0.00709498
-0.00755764
-0.00769408
-0.00782951
-0.00765123
-0.00746036
-0.00711448
-0.00679872
-0.0064872
-0.00626463
-0.00614203
-0.0061421
-0.00626483
-0.00648753
-0.00679918
-0.00711506
-0.00746104
-0.00765199
-0.00783033
-0.00769487
-0.00755839
-0.00709555
-0.00671627
-0.00632692
-0.00620754
-0.00674849
-0.0079859
-0.010586
-0.0147147
-0.0206022
-0.0288095
-0.0391297
-0.0512741
-0.0654276
-0.0798028
-0.0932969
-0.106009
-0.115564
-0.122447
-0.129588
-0.134433
-0.133166
-0.126845
-0.118383
-0.109316
-0.101246
-0.0987691
-0.105156
-0.114796
-0.120431
-0.125567
-0.136794
-0.149558
-0.154111
-0.149021
-0.139242
-0.126915
-0.110513
-0.088182
-0.0582626
-0.0205912
-0.0125226
-0.0387116
-0.0653607
-0.0873635
-0.101535
-0.11194
-0.123984
-0.135205
-0.139526
-0.137882
-0.133935
-0.123981
-0.105156
-0.0868925
-0.0800297
-0.08354
-0.0912936
-0.100474
-0.10978
-0.117604
-0.122585
-0.126019
-0.130046
-0.13101
-0.125974
-0.11872
-0.109918
-0.0985867
-0.0872339
-0.0758833
-0.0642295
-0.0535164
-0.0436448
-0.0345571
-0.0267851
-0.0200621
-0.014218
-0.00964954
-0.00563917
-0.00267459
-0.000278453
0.00152253
0.0027133
0.00368115
0.00412876
0.00455823
0.00464715
0.00479106
0.00477483
0.00480308
0.00480314
0.00477502
0.00479138
0.00464759
0.00455883
0.00412947
0.003682
0.00271423
0.00152356
-0.000277385
-0.00267351
-0.00563808
-0.00964856
-0.014217
-0.0200613
-0.0267844
-0.0345565
-0.0436444
-0.0535161
-0.0642294
-0.0758837
-0.0872344
-0.0985876
-0.10992
-0.118722
-0.125977
-0.131014
-0.130049
-0.12602
-0.122586
-0.117606
-0.109782
-0.100475
-0.0912936
-0.083538
-0.0800253
-0.0868884
-0.105156
-0.123985
-0.133937
-0.137882
-0.139525
-0.135205
-0.123984
-0.111941
-0.101538
-0.0873665
-0.065362
-0.038711
-0.0125221
-0.00631069
-0.0226403
-0.0436181
-0.061567
-0.0727755
-0.0837552
-0.100277
-0.11853
-0.132799
-0.141523
-0.140377
-0.123856
-0.0987718
-0.0800297
-0.0724077
-0.0710767
-0.0730464
-0.077584
-0.0843438
-0.0929263
-0.102084
-0.112393
-0.122059
-0.126371
-0.128177
-0.130134
-0.128261
-0.123869
-0.118537
-0.110283
-0.100651
-0.0903582
-0.0789753
-0.0675171
-0.0566282
-0.0460279
-0.0367547
-0.0287214
-0.0217555
-0.0166106
-0.0121347
-0.00926362
-0.00686199
-0.00544598
-0.00440544
-0.00379166
-0.00345532
-0.00322941
-0.00316239
-0.00310887
-0.0031088
-0.00316224
-0.00322912
-0.00345491
-0.00379105
-0.00440466
-0.00544496
-0.00686073
-0.00926216
-0.012133
-0.0166088
-0.0217536
-0.0287197
-0.0367533
-0.0460268
-0.0566277
-0.0675171
-0.078976
-0.0903596
-0.100653
-0.110286
-0.118539
-0.123871
-0.128263
-0.130137
-0.128179
-0.126374
-0.122061
-0.112394
-0.102084
-0.0929257
-0.0843432
-0.0775839
-0.0730465
-0.0710761
-0.0724052
-0.0800253
-0.0987691
-0.123858
-0.140381
-0.141527
-0.1328
-0.11853
-0.100275
-0.083753
-0.0727757
-0.0615694
-0.0436193
-0.0226391
-0.00630958
-0.00203831
-0.0095199
-0.0215913
-0.033183
-0.0439144
-0.0593991
-0.0808547
-0.103663
-0.124893
-0.140604
-0.141302
-0.124204
-0.101249
-0.08354
-0.0710767
-0.0619474
-0.0565814
-0.0558094
-0.0609648
-0.0699313
-0.079964
-0.0914755
-0.10108
-0.108053
-0.11699
-0.123923
-0.126631
-0.12929
-0.12925
-0.126098
-0.122148
-0.116169
-0.108848
-0.101473
-0.0937803
-0.0860193
-0.0793291
-0.0723668
-0.0664598
-0.0608133
-0.0554362
-0.0509773
-0.0462856
-0.0427914
-0.0390775
-0.0364942
-0.0339594
-0.0323554
-0.0310797
-0.0305347
-0.0305347
-0.0310798
-0.0323555
-0.0339595
-0.0364945
-0.0390778
-0.0427918
-0.046286
-0.0509778
-0.0554366
-0.0608138
-0.0664602
-0.072367
-0.0793294
-0.0860194
-0.0937806
-0.101474
-0.108848
-0.11617
-0.12215
-0.126099
-0.129252
-0.129292
-0.126633
-0.123925
-0.116991
-0.108053
-0.101082
-0.0914767
-0.079964
-0.0699303
-0.0609627
-0.0558071
-0.0565803
-0.0619471
-0.0710761
-0.083538
-0.101246
-0.124205
-0.141306
-0.140609
-0.124895
-0.103664
-0.080853
-0.0593955
-0.0439115
-0.0331829
-0.0215921
-0.00951956
-0.00203777
0.00174727
0.00356893
0.00177289
-0.00509021
-0.0197335
-0.0415083
-0.0648803
-0.0878943
-0.112884
-0.133989
-0.138902
-0.127067
-0.109316
-0.0912936
-0.0730464
-0.0565814
-0.0450138
-0.0417909
-0.0461562
-0.0519106
-0.0586543
-0.0675035
-0.0748296
-0.0836859
-0.0944896
-0.101601
-0.109067
-0.116984
-0.121155
-0.124996
-0.127831
-0.128506
-0.128605
-0.127761
-0.125066
-0.121689
-0.11717
-0.11103
-0.105299
-0.0978969
-0.091557
-0.0846121
-0.0785241
-0.0730033
-0.0679762
-0.064142
-0.0606612
-0.0584452
-0.0566897
-0.0559684
-0.0559683
-0.0566895
-0.058445
-0.0606609
-0.0641418
-0.067976
-0.0730032
-0.0785242
-0.0846125
-0.0915578
-0.097898
-0.105301
-0.111032
-0.117173
-0.121692
-0.125068
-0.127763
-0.128607
-0.128507
-0.127833
-0.124998
-0.121156
-0.116985
-0.109067
-0.101601
-0.0944904
-0.0836854
-0.0748289
-0.0675036
-0.0586542
-0.0519107
-0.0461554
-0.0417881
-0.045011
-0.0565803
-0.0730465
-0.0912936
-0.109316
-0.127067
-0.138905
-0.133993
-0.112886
-0.0878947
-0.0648798
-0.0415057
-0.0197291
-0.00508681
0.00177378
0.00356857
0.00174703
0.00657826
0.018818
0.0254327
0.0187149
-0.00272462
-0.0286659
-0.0497887
-0.0707712
-0.0982571
-0.123475
-0.133579
-0.12968
-0.118381
-0.100474
-0.077584
-0.0558094
-0.0417909
-0.0378052
-0.0372389
-0.0360457
-0.0392242
-0.0449817
-0.0506331
-0.0602419
-0.0694317
-0.0771364
-0.0876402
-0.0957655
-0.102697
-0.11088
-0.116803
-0.121686
-0.125593
-0.12735
-0.12722
-0.126696
-0.124048
-0.121652
-0.118908
-0.115516
-0.113586
-0.110276
-0.108949
-0.10636
-0.105319
-0.10359
-0.102783
-0.101818
-0.10136
-0.101052
-0.101052
-0.10136
-0.101818
-0.102783
-0.10359
-0.10532
-0.10636
-0.108949
-0.110275
-0.113586
-0.115516
-0.118909
-0.121652
-0.124049
-0.126697
-0.127222
-0.127352
-0.125595
-0.121688
-0.116805
-0.110881
-0.102698
-0.0957661
-0.0876408
-0.077136
-0.0694317
-0.0602415
-0.0506316
-0.0449806
-0.0392229
-0.036045
-0.0372395
-0.0378046
-0.0417881
-0.0558071
-0.0775839
-0.100475
-0.118383
-0.129682
-0.133582
-0.123479
-0.0982584
-0.0707704
-0.0497885
-0.0286655
-0.00272097
0.0187205
0.0254365
0.0188187
0.00657801
0.0126849
0.0354823
0.046511
0.0359477
0.00860001
-0.0175368
-0.0350062
-0.0548228
-0.0831031
-0.109074
-0.12415
-0.130415
-0.126842
-0.10978
-0.0843438
-0.0609648
-0.0461562
-0.0372389
-0.0282209
-0.0234853
-0.0266174
-0.0303379
-0.0352671
-0.043165
-0.0485717
-0.055211
-0.0631332
-0.0690869
-0.0773009
-0.0849872
-0.0910882
-0.0973747
-0.10272
-0.107151
-0.111789
-0.116446
-0.119857
-0.124651
-0.127089
-0.13043
-0.132215
-0.133371
-0.134512
-0.134005
-0.134505
-0.13333
-0.133392
-0.132376
-0.132302
-0.131915
-0.131916
-0.132303
-0.132377
-0.133393
-0.133331
-0.134506
-0.134006
-0.134513
-0.133372
-0.132217
-0.130432
-0.127089
-0.124652
-0.119857
-0.116446
-0.111789
-0.107151
-0.10272
-0.097375
-0.0910884
-0.0849877
-0.0773009
-0.0690863
-0.0631332
-0.0552106
-0.0485714
-0.0431653
-0.0352666
-0.0303372
-0.0266161
-0.0234828
-0.0282199
-0.0372396
-0.0461554
-0.0609627
-0.0843432
-0.109782
-0.126845
-0.130416
-0.124152
-0.109077
-0.0831042
-0.0548212
-0.0350054
-0.0175379
0.00860138
0.0359535
0.0465177
0.035486
0.0126857
0.0187385
0.0501676
0.0620227
0.0472017
0.0178435
-0.00610708
-0.0221172
-0.0418842
-0.0672166
-0.0907818
-0.112067
-0.129825
-0.133162
-0.117604
-0.0929263
-0.0699313
-0.0519106
-0.0360457
-0.0234853
-0.0207168
-0.0227289
-0.0222705
-0.0244322
-0.0277204
-0.0295785
-0.0349165
-0.0405624
-0.0464029
-0.0537033
-0.0595516
-0.0661629
-0.0732246
-0.0803921
-0.087409
-0.0948856
-0.10077
-0.106063
-0.110696
-0.112798
-0.116045
-0.116103
-0.117882
-0.117401
-0.118006
-0.117732
-0.117693
-0.117685
-0.117477
-0.117547
-0.117448
-0.117448
-0.117547
-0.117477
-0.117686
-0.117693
-0.117732
-0.118006
-0.117402
-0.117883
-0.116104
-0.116046
-0.112799
-0.110697
-0.106065
-0.100771
-0.0948865
-0.0874092
-0.080392
-0.0732243
-0.0661622
-0.0595511
-0.0537031
-0.0464023
-0.0405617
-0.0349155
-0.0295772
-0.02772
-0.0244319
-0.0222706
-0.0227296
-0.0207155
-0.0234828
-0.036045
-0.0519107
-0.0699304
-0.0929257
-0.117606
-0.133166
-0.129828
-0.112068
-0.0907824
-0.0672173
-0.0418831
-0.022116
-0.00610837
0.0178429
0.0472064
0.0620312
0.0501745
0.018741
0.0227689
0.0590053
0.0703418
0.0546393
0.0277381
0.00568586
-0.0119903
-0.031113
-0.0503938
-0.0716882
-0.100276
-0.126788
-0.134429
-0.122585
-0.102084
-0.079964
-0.0586543
-0.0392242
-0.0266174
-0.0227289
-0.018488
-0.0136671
-0.0148015
-0.0165402
-0.0187619
-0.0241003
-0.0278604
-0.0316904
-0.036141
-0.0407043
-0.0462223
-0.0518067
-0.0571958
-0.0617755
-0.0664829
-0.0694452
-0.07359
-0.0764218
-0.0799481
-0.083831
-0.086721
-0.0913536
-0.0937327
-0.0981019
-0.100034
-0.103363
-0.10477
-0.106767
-0.107515
-0.108171
-0.108171
-0.107515
-0.106767
-0.10477
-0.103363
-0.100034
-0.0981016
-0.0937321
-0.0913531
-0.0867201
-0.0838302
-0.0799473
-0.0764211
-0.0735896
-0.0694449
-0.0664831
-0.0617758
-0.0571961
-0.0518069
-0.0462222
-0.0407039
-0.0361406
-0.0316901
-0.0278604
-0.0241002
-0.018761
-0.0165394
-0.0148003
-0.0136658
-0.0184886
-0.0227296
-0.0266161
-0.0392229
-0.0586542
-0.079964
-0.102084
-0.122586
-0.134433
-0.126792
-0.100277
-0.0716864
-0.0503931
-0.0311127
-0.0119898
0.00568495
0.027737
0.0546428
0.0703505
0.0590142
0.0227726
0.0234071
0.0598266
0.0714471
0.0599346
0.0389145
0.0175584
-0.00336732
-0.0210863
-0.0349221
-0.0557893
-0.0887022
-0.118014
-0.129585
-0.126019
-0.112393
-0.0914755
-0.0675035
-0.0449817
-0.0303379
-0.0222705
-0.0136671
-0.0103517
-0.0135217
-0.0138635
-0.0147936
-0.0170976
-0.0170312
-0.0189709
-0.0222129
-0.0250794
-0.0281703
-0.0315416
-0.0343211
-0.037859
-0.0421717
-0.0462035
-0.0521937
-0.0566374
-0.0627576
-0.0671816
-0.0719358
-0.0758983
-0.0788357
-0.0820194
-0.0835138
-0.0857684
-0.0864079
-0.0877249
-0.0879435
-0.0883733
-0.0883734
-0.0879436
-0.0877252
-0.0864082
-0.0857689
-0.0835143
-0.0820201
-0.0788364
-0.075899
-0.0719364
-0.0671819
-0.0627578
-0.056637
-0.0521931
-0.0462025
-0.0421708
-0.0378581
-0.0343203
-0.0315412
-0.02817
-0.0250792
-0.0222126
-0.0189701
-0.0170307
-0.0170979
-0.0147937
-0.013864
-0.013522
-0.0103499
-0.0136658
-0.0222707
-0.0303372
-0.0449806
-0.0675037
-0.0914767
-0.112394
-0.12602
-0.129588
-0.118018
-0.0887037
-0.0557868
-0.0349198
-0.0210862
-0.00336789
0.0175578
0.0389143
0.0599376
0.0714547
0.0598354
0.023411
0.0205558
0.0529664
0.0663543
0.0633944
0.0506081
0.0298554
0.00560035
-0.011936
-0.0235822
-0.0436649
-0.0747174
-0.103429
-0.122446
-0.130046
-0.122059
-0.10108
-0.0748296
-0.0506331
-0.0352671
-0.0244322
-0.0148015
-0.0135217
-0.0134995
-0.00887238
-0.00880026
-0.00973559
-0.00966305
-0.0128256
-0.0146884
-0.0157537
-0.0181322
-0.0206922
-0.0231949
-0.0273263
-0.0306036
-0.0337823
-0.0373236
-0.0387527
-0.0416771
-0.0422236
-0.044251
-0.0448648
-0.0461913
-0.0471744
-0.04806
-0.0491868
-0.0497671
-0.0506462
-0.0509437
-0.0512728
-0.0512728
-0.0509436
-0.0506459
-0.0497667
-0.0491865
-0.0480596
-0.047174
-0.046191
-0.0448646
-0.044251
-0.0422237
-0.0416775
-0.0387531
-0.0373243
-0.0337826
-0.0306038
-0.0273263
-0.0231944
-0.0206917
-0.0181318
-0.0157533
-0.0146884
-0.0128255
-0.00966223
-0.00973515
-0.00879939
-0.00887183
-0.0135009
-0.013522
-0.0148004
-0.024432
-0.0352666
-0.0506316
-0.0748289
-0.101082
-0.122061
-0.130049
-0.122447
-0.103431
-0.0747187
-0.0436632
-0.0235796
-0.0119358
0.00559926
0.0298553
0.0506093
0.0633975
0.0663602
0.052973
0.0205588
0.0152245
0.0406671
0.0565523
0.0644697
0.0616738
0.0429116
0.0156386
-0.00438943
-0.0164884
-0.0332995
-0.0585773
-0.0876923
-0.115562
-0.13101
-0.126371
-0.108053
-0.0836859
-0.0602419
-0.043165
-0.0277204
-0.0165402
-0.0138635
-0.00887238
-0.00512296
-0.00871497
-0.00908297
-0.00908159
-0.0108095
-0.0100511
-0.0109414
-0.0127562
-0.0137858
-0.0148818
-0.0165429
-0.0163557
-0.0175927
-0.018394
-0.0189867
-0.0216382
-0.0223427
-0.0259127
-0.0272185
-0.0305359
-0.0322649
-0.0347342
-0.0363966
-0.0379317
-0.039094
-0.0398105
-0.0402235
-0.0402235
-0.0398105
-0.0390941
-0.0379316
-0.0363966
-0.034734
-0.0322646
-0.0305355
-0.0272178
-0.0259121
-0.0223417
-0.0216375
-0.0189858
-0.0183934
-0.0175923
-0.0163554
-0.0165432
-0.0148819
-0.0137859
-0.0127564
-0.010941
-0.0100508
-0.0108099
-0.00908157
-0.00908344
-0.00871511
-0.00512122
-0.00887183
-0.013864
-0.0165394
-0.02772
-0.0431653
-0.0602415
-0.0836854
-0.108053
-0.126374
-0.131014
-0.115564
-0.0876922
-0.0585769
-0.0332985
-0.016487
-0.00438955
0.0156377
0.0429126
0.0616765
0.064473
0.0565559
0.0406707
0.0152261
0.00887144
0.0258735
0.0437408
0.0626753
0.0710145
0.0562401
0.0264182
0.00187613
-0.011726
-0.0239922
-0.0435271
-0.0733033
-0.106006
-0.125974
-0.128177
-0.11699
-0.0944896
-0.0694317
-0.0485717
-0.0295785
-0.0187619
-0.0147936
-0.00880026
-0.00871497
-0.0105568
-0.00651946
-0.00632564
-0.00699995
-0.00630056
-0.00766064
-0.00812717
-0.00794785
-0.00848021
-0.0095528
-0.009743
-0.0126136
-0.0135325
-0.0160729
-0.0182428
-0.0191322
-0.021866
-0.0214684
-0.0238361
-0.023051
-0.0246269
-0.0240117
-0.0248559
-0.0245353
-0.0248767
-0.0247851
-0.0247852
-0.0248767
-0.0245354
-0.024856
-0.0240119
-0.0246272
-0.0230512
-0.0238366
-0.0214687
-0.0218666
-0.0191324
-0.0182431
-0.0160729
-0.0135321
-0.0126134
-0.00974228
-0.00955236
-0.00847983
-0.00794748
-0.00812728
-0.00766063
-0.00630016
-0.00699993
-0.00632511
-0.00651916
-0.0105582
-0.00871512
-0.00879939
-0.0147937
-0.018761
-0.0295772
-0.0485714
-0.0694317
-0.0944904
-0.116991
-0.128179
-0.125977
-0.106009
-0.0733028
-0.0435252
-0.0239911
-0.0117262
0.0018751
0.026418
0.0562426
0.0710187
0.0626783
0.0437419
0.0258739
0.00887164
0.00275341
0.011186
0.029723
0.0581488
0.0776726
0.0685195
0.0372604
0.00803316
-0.00748083
-0.0162514
-0.0312253
-0.0594886
-0.0932954
-0.11872
-0.130134
-0.123923
-0.101601
-0.0771364
-0.055211
-0.0349165
-0.0241003
-0.0170976
-0.00973559
-0.00908297
-0.00651946
-0.00351562
-0.0066452
-0.00654463
-0.00598448
-0.00694557
-0.00667783
-0.00674497
-0.00806397
-0.00872548
-0.00889625
-0.0105884
-0.00908438
-0.0105327
-0.00910577
-0.00933995
-0.00927265
-0.00846928
-0.00964697
-0.00851954
-0.010149
-0.00923472
-0.0106137
-0.0100878
-0.0108427
-0.0106786
-0.0106786
-0.0108425
-0.0100876
-0.0106135
-0.00923439
-0.0101487
-0.00851909
-0.00964673
-0.00846889
-0.0092725
-0.00933987
-0.00910574
-0.010533
-0.00908448
-0.010589
-0.00889644
-0.0087256
-0.00806411
-0.00674463
-0.00667769
-0.00694572
-0.00598426
-0.00654491
-0.00664544
-0.00351433
-0.00651916
-0.00908344
-0.00973515
-0.0170979
-0.0241002
-0.0349155
-0.0552106
-0.077136
-0.101601
-0.123925
-0.130137
-0.118722
-0.0932969
-0.0594879
-0.0312228
-0.0162501
-0.00748214
0.00803108
0.0372608
0.0685239
0.0776781
0.0581512
0.0297218
0.0111839
0.00275253
-0.00241024
-0.00165646
0.0162798
0.0516786
0.0808596
0.0780516
0.0475217
0.0153981
-0.00238717
-0.0102239
-0.022078
-0.0469169
-0.0798019
-0.109918
-0.128261
-0.126631
-0.109067
-0.0876402
-0.0631332
-0.0405624
-0.0278604
-0.0170312
-0.00966305
-0.00908159
-0.00632564
-0.0066452
-0.00806665
-0.00513256
-0.00554955
-0.0060249
-0.00547379
-0.00573869
-0.00626616
-0.00513242
-0.00519474
-0.00537762
-0.00408239
-0.00622557
-0.00474002
-0.00727426
-0.0068054
-0.00839082
-0.00906384
-0.00950283
-0.0107313
-0.0105007
-0.0116421
-0.0112815
-0.0119346
-0.0117792
-0.0117791
-0.0119347
-0.0112815
-0.0116422
-0.0105006
-0.0107314
-0.00950276
-0.00906383
-0.00839068
-0.0068051
-0.00727408
-0.00473943
-0.00622538
-0.00408184
-0.0053774
-0.00519469
-0.00513225
-0.00626647
-0.00573881
-0.00547364
-0.00602509
-0.00554939
-0.00513219
-0.00806752
-0.00664544
-0.00632511
-0.00908157
-0.00966224
-0.0170307
-0.0278604
-0.0405617
-0.0631332
-0.0876408
-0.109067
-0.126633
-0.128263
-0.10992
-0.0798028
-0.046916
-0.0220755
-0.0102226
-0.00238895
0.0153953
0.0475225
0.0780574
0.080866
0.0516801
0.0162765
-0.00166036
-0.00241176
-0.00642164
-0.0117841
0.00496201
0.044338
0.0800038
0.0834047
0.0569041
0.025002
0.00418789
-0.0061734
-0.0163816
-0.035921
-0.0654278
-0.0985867
-0.123869
-0.12929
-0.116984
-0.0957655
-0.0690869
-0.0464029
-0.0316904
-0.0189709
-0.0128256
-0.0108095
-0.00699995
-0.00654463
-0.00513256
-0.00415428
-0.00581888
-0.00498775
-0.00491018
-0.00494054
-0.00500184
-0.00437884
-0.00576864
-0.00551292
-0.00598765
-0.00735689
-0.00590703
-0.00820851
-0.00596221
-0.00785793
-0.00611654
-0.00702037
-0.00619107
-0.00631447
-0.00612905
-0.00595407
-0.00599189
-0.00589021
-0.00589013
-0.00599199
-0.00595401
-0.00612916
-0.00631448
-0.00619119
-0.00702052
-0.00611665
-0.00785827
-0.00596228
-0.00820896
-0.00590708
-0.00735714
-0.00598773
-0.00551272
-0.00576868
-0.00437849
-0.00500164
-0.00494058