/*--------------------------------*- C++ -*----------------------------------*\
  =========                 |
  \\      /  F ield         | OpenFOAM: The Open Source CFD Toolbox
   \\    /   O peration     | Website:  https://openfoam.org
    \\  /    A nd           | Version:  10
     \\/     M anipulation  |
\*---------------------------------------------------------------------------*/
FoamFile
{
    format      ascii;
    class       volScalarField;
    location    "59";
    object      h_0;
}
// * * * * * * * * * * * * * * * * * * * * * * * * * * * * * * * * * * * * * //

dimensions      [0 1 0 0 0 0 0];

internalField   nonuniform List<scalar> 
10000
(
-0.000537183
-0.00190534
-0.00374312
-0.00572459
-0.00766069
-0.00967902
-0.011726
-0.013376
-0.0143079
-0.0144427
-0.0137293
-0.0121839
-0.0100639
-0.00765782
-0.0049529
-0.00193172
0.00107353
0.00354868
0.00515852
0.00580202
0.00565944
0.00518728
0.00467977
0.00394061
0.00262814
0.000991012
-0.000188511
-0.000287569
0.000621938
0.00175841
0.00220769
0.00167002
0.000649655
4.22816e-05
0.000410386
0.00153334
0.00275189
0.00345842
0.00344034
0.00300654
0.00267209
0.00269209
0.00293997
0.00298868
0.00237438
0.000866889
-0.00139061
-0.00391063
-0.0060707
-0.00732523
-0.00732524
-0.00607071
-0.0039106
-0.0013905
0.000867067
0.00237457
0.00298881
0.00293998
0.00269199
0.00267193
0.00300643
0.00344034
0.00345852
0.00275204
0.00153346
0.000410458
4.23359e-05
0.00064976
0.0016702
0.00220791
0.00175854
0.000621825
-0.000287993
-0.000189211
0.000990177
0.0026274
0.0039402
0.00467991
0.00518808
0.00566085
0.00580381
0.00516034
0.00355024
0.00107466
-0.00193111
-0.0049528
-0.0076582
-0.0100647
-0.0121852
-0.0137309
-0.0144446
-0.0143097
-0.0133777
-0.0117272
-0.00967969
-0.00766087
-0.00572443
-0.00374275
-0.00190495
-0.000537
-0.00190534
-0.0065203
-0.0123676
-0.0184452
-0.0241726
-0.0299191
-0.0355661
-0.0399403
-0.0421638
-0.042051
-0.0394984
-0.0345978
-0.0281295
-0.0209547
-0.0130681
-0.00444334
0.00396232
0.0107007
0.0148804
0.01632
0.0156495
0.014232
0.0128684
0.0108735
0.00714448
0.00234092
-0.00124904
-0.00174203
0.000722318
0.00390274
0.00512815
0.00349462
0.000451955
-0.00138199
-0.000331589
0.00301498
0.00676494
0.00913413
0.00944494
0.00850566
0.00772791
0.00780618
0.00838273
0.00828608
0.00626322
0.00173048
-0.0048535
-0.0120946
-0.0182492
-0.0218057
-0.0218056
-0.0182491
-0.0120944
-0.00485312
0.00173099
0.00626372
0.00828637
0.0083827
0.00780583
0.00772742
0.00850526
0.00944482
0.00913431
0.0067653
0.00301535
-0.000331312
-0.00138177
0.00045222
0.00349494
0.00512837
0.00390258
0.000721511
-0.00174354
-0.00125106
0.00233877
0.00714271
0.0108726
0.0128689
0.0142342
0.0156533
0.0163249
0.0148855
0.0107052
0.0039657
-0.00444138
-0.0130676
-0.0209556
-0.0281317
-0.0346014
-0.039503
-0.0420562
-0.042169
-0.039945
-0.0355697
-0.0299213
-0.0241735
-0.0184452
-0.012367
-0.00651947
-0.00190494
-0.00374312
-0.0123676
-0.0226117
-0.0328005
-0.0419713
-0.0507134
-0.0589473
-0.0650064
-0.0676379
-0.0666159
-0.0618452
-0.0535349
-0.0429421
-0.0314287
-0.0190498
-0.0058292
0.00674326
0.0164981
0.0222189
0.0238746
0.0226881
0.0208391
0.0193904
0.0169414
0.0114882
0.00393092
-0.00206701
-0.00333413
9.09921e-05
0.00475079
0.00639717
0.00352802
-0.00159061
-0.00476785
-0.00323867
0.00221035
0.00862896
0.0131212
0.0144427
0.0136382
0.0127395
0.0127611
0.0131922
0.0123662
0.00852709
0.000944792
-0.00956446
-0.0208607
-0.0303396
-0.0357727
-0.0357725
-0.0303392
-0.0208601
-0.00956371
0.000945568
0.0085277
0.0123664
0.013192
0.0127605
0.0127387
0.0136375
0.0144424
0.0131213
0.00862937
0.0022109
-0.00323811
-0.00476737
-0.00159025
0.00352811
0.00639671
0.0047495
8.88246e-05
-0.0033369
-0.00206987
0.00392847
0.0114866
0.016941
0.0193916
0.0208423
0.0226935
0.0238816
0.0222264
0.0165049
0.00674863
-0.00582586
-0.0190487
-0.0314298
-0.0429454
-0.0535402
-0.0618519
-0.0666235
-0.0676456
-0.0650135
-0.058953
-0.0507173
-0.0419735
-0.0328014
-0.0226116
-0.012367
-0.00374274
-0.00572459
-0.0184452
-0.0328005
-0.0465607
-0.0584689
-0.0693163
-0.079187
-0.086238
-0.0890244
-0.0872728
-0.0808782
-0.0701347
-0.0566136
-0.0419771
-0.0263286
-0.00976688
0.00583555
0.0178376
0.0248796
0.0271894
0.026561
0.0257121
0.0256066
0.023942
0.0178204
0.0082996
0.000262991
-0.00188449
0.00201586
0.00753177
0.00908828
0.0046796
-0.00268007
-0.00737046
-0.00559387
0.0017988
0.0109215
0.0177879
0.0204874
0.0200833
0.0190309
0.018636
0.0183599
0.0162671
0.010297
-0.000320815
-0.0144286
-0.0292966
-0.0416437
-0.0486658
-0.0486656
-0.041643
-0.0292956
-0.0144275
-0.000319911
0.0102975
0.0162672
0.0183596
0.0186354
0.0190302
0.0200827
0.0204872
0.017788
0.0109219
0.00179932
-0.00559328
-0.00736989
-0.0026797
0.00467943
0.00908714
0.00752942
0.00201254
-0.00188803
0.000260127
0.00829799
0.0178202
0.023943
0.0256087
0.0257159
0.0265668
0.0271969
0.0248879
0.0178456
0.00584213
-0.00976256
-0.0263271
-0.0419783
-0.0566176
-0.0701412
-0.0808865
-0.087282
-0.0890339
-0.0862468
-0.0791943
-0.0693216
-0.0584726
-0.0465629
-0.0328014
-0.0184452
-0.00572441
-0.00766069
-0.0241726
-0.0419713
-0.0584689
-0.0722389
-0.0842233
-0.0947679
-0.102187
-0.105038
-0.102985
-0.0959029
-0.084159
-0.0694548
-0.053474
-0.0362654
-0.0179288
-0.000471649
0.0132854
0.0219416
0.0259119
0.0273314
0.0290334
0.0315319
0.0316239
0.0257743
0.0152481
0.0059297
0.00321283
0.00736722
0.0131576
0.0140023
0.0076292
-0.00214991
-0.00841083
-0.00645992
0.00279901
0.0145651
0.0237615
0.0277989
0.0276976
0.0262937
0.025235
0.0240383
0.020578
0.0124973
-0.00105298
-0.0186279
-0.0369804
-0.0521637
-0.0607562
-0.0607559
-0.052163
-0.0369793
-0.0186268
-0.00105212
0.0124977
0.0205781
0.024038
0.0252346
0.0262935
0.0276976
0.0277991
0.0237618
0.0145653
0.00279902
-0.00646002
-0.00841089
-0.00214993
0.00762886
0.0140011
0.0131551
0.00736383
0.00320946
0.00592757
0.0152478
0.0257758
0.0316266
0.0315352
0.0290375
0.0273369
0.0259188
0.0219494
0.0132931
-0.000464995
-0.0179243
-0.0362636
-0.0534754
-0.0694593
-0.0841661
-0.095912
-0.102995
-0.105048
-0.102196
-0.0947761
-0.0842298
-0.0722439
-0.0584726
-0.0419735
-0.0241735
-0.00766085
-0.00967902
-0.0299191
-0.0507134
-0.0693163
-0.0842233
-0.0963896
-0.106438
-0.11315
-0.115326
-0.112636
-0.105046
-0.0931302
-0.0786409
-0.0630336
-0.0461495
-0.0279344
-0.0102041
0.00437402
0.0144317
0.0204179
0.0245175
0.0293049
0.034665
0.0367306
0.0317548
0.0212638
0.0117551
0.00913343
0.0135486
0.0191283
0.0187024
0.0100693
-0.00209641
-0.00976794
-0.00760032
0.00339138
0.0175454
0.0288115
0.0340564
0.0343046
0.0327409
0.0313183
0.0295522
0.0250604
0.015111
-0.00126859
-0.0223437
-0.0443267
-0.0625253
-0.0727937
-0.0727935
-0.0625248
-0.044326
-0.022343
-0.0012679
0.0151115
0.0250606
0.0295523
0.0313183
0.0327412
0.0343052
0.0340572
0.028812
0.0175453
0.00339043
-0.00760186
-0.0097695
-0.00209753
0.0100686
0.0187017
0.0191268
0.0135463
0.00913111
0.011754
0.0212647
0.0317577
0.0367346
0.0346693
0.0293093
0.0245224
0.0204237
0.014438
0.00438036
-0.0101986
-0.0279304
-0.0461479
-0.0630348
-0.078645
-0.0931369
-0.105054
-0.112645
-0.115336
-0.11316
-0.106447
-0.0963971
-0.0842298
-0.0693216
-0.0507173
-0.0299213
-0.00967966
-0.011726
-0.0355661
-0.0589473
-0.079187
-0.0947679
-0.106438
-0.115
-0.119924
-0.120476
-0.116443
-0.108052
-0.096282
-0.0829264
-0.0690117
-0.0540234
-0.0376163
-0.0211522
-0.00688203
0.00389153
0.0115039
0.0179769
0.0254409
0.0332006
0.0371123
0.0336302
0.0244675
0.016169
0.0145477
0.0194164
0.0245252
0.0226053
0.0118235
-0.00236978
-0.0112156
-0.00903245
0.003069
0.0188369
0.0315917
0.0379124
0.0388476
0.0377465
0.0366397
0.0348566
0.0296663
0.0179631
-0.00128448
-0.0259725
-0.05172
-0.0730452
-0.0850434
-0.0850435
-0.0730453
-0.0517199
-0.0259722
-0.00128392
0.0179637
0.029667
0.0348571
0.0366401
0.0377471
0.0388485
0.0379133
0.0315922
0.0188364
0.00306713
-0.00903543
-0.0112189
-0.00237226
0.0118222
0.0226051
0.0245251
0.0194159
0.0145471
0.0161691
0.0244693
0.0336337
0.0371169
0.0332054
0.0254455
0.0179814
0.0115084
0.00389593
-0.00687799
-0.0211488
-0.0376138
-0.0540224
-0.0690125
-0.0829293
-0.0962871
-0.108058
-0.116451
-0.120485
-0.119933
-0.115009
-0.106447
-0.0947761
-0.0791943
-0.058953
-0.0355696
-0.0117272
-0.013376
-0.0399403
-0.0650064
-0.086238
-0.102187
-0.11315
-0.119924
-0.122757
-0.121519
-0.116165
-0.107243
-0.0962178
-0.0848459
-0.073532
-0.0613034
-0.0475148
-0.0330275
-0.019602
-0.00850785
0.000377556
0.00882428
0.0185133
0.028345
0.0342538
0.0331328
0.0266661
0.0208633
0.020964
0.0264311
0.0310318
0.0278487
0.0155116
-9.18266e-05
-0.00998008
-0.00840572
0.00361044
0.0197202
0.033087
0.0402316
0.0421251
0.0419626
0.0415657
0.0399412
0.0340287
0.0204737
-0.00168972
-0.0299413
-0.0593263
-0.0836349
-0.0972713
-0.0972714
-0.0836351
-0.0593264
-0.029941
-0.00168905
0.0204747
0.0340298
0.0399421
0.0415664
0.0419631
0.0421256
0.0402321
0.0330871
0.0197193
0.00360812
-0.00840931
-0.00998409
-9.50318e-05
0.0155101
0.0278489
0.0310331
0.0264325
0.0209653
0.020865
0.0266689
0.0331368
0.0342586
0.0283498
0.0185177
0.00882808
0.000380766
-0.00850544
-0.0196005
-0.0330267
-0.0475145
-0.0613035
-0.0735326
-0.0848474
-0.0962207
-0.107247
-0.116171
-0.121526
-0.122766
-0.119933
-0.11316
-0.102196
-0.0862467
-0.0650135
-0.039945
-0.0133777
-0.0143079
-0.0421638
-0.0676379
-0.0890244
-0.105038
-0.115326
-0.120476
-0.121519
-0.119005
-0.113049
-0.104444
-0.0950501
-0.0864328
-0.078236
-0.0690287
-0.058009
-0.045679
-0.0333423
-0.0222158
-0.0123568
-0.00222785
0.00945308
0.0213125
0.0295468
0.0315268
0.0286717
0.0260578
0.0281333
0.0342112
0.0385048
0.0347524
0.0219231
0.00584808
-0.00477576
-0.0042987
0.00661708
0.0220245
0.035294
0.0429601
0.0457237
0.0463493
0.04633
0.0444351
0.037465
0.0220138
-0.00275155
-0.0339931
-0.066344
-0.0930576
-0.108012
-0.108012
-0.0930576
-0.0663437
-0.0339924
-0.00275041
0.0220152
0.0374664
0.0444362
0.0463304
0.0463492
0.0457233
0.0429595
0.0352931
0.0220232
0.00661482
-0.00430182
-0.00477914
0.00584543
0.0219221
0.0347533
0.038507
0.034214
0.0281364
0.0260612
0.0286757
0.0315313
0.0295514
0.0213167
0.00945653
-0.00222517
-0.012355
-0.0222151
-0.0333429
-0.0456806
-0.0580108
-0.0690303
-0.078237
-0.0864334
-0.095051
-0.104446
-0.113053
-0.11901
-0.121526
-0.120485
-0.115336
-0.105048
-0.0890339
-0.0676456
-0.042169
-0.0143097
-0.0144427
-0.042051
-0.0666159
-0.0872728
-0.102985
-0.112636
-0.116443
-0.116165
-0.113049
-0.107322
-0.0998434
-0.0926721
-0.087062
-0.0819403
-0.0756041
-0.0673619
-0.0575562
-0.04701
-0.0366815
-0.0265959
-0.0153766
-0.00214419
0.0114682
0.0219537
0.0271197
0.028005
0.0286043
0.0325561
0.0392577
0.0436754
0.0403369
0.028347
0.0130489
0.00249055
0.00213135
0.0118311
0.0263181
0.0392936
0.0472364
0.0504211
0.0510916
0.0505322
0.0475522
0.0390993
0.0219333
-0.00464511
-0.0376963
-0.0717196
-0.0997505
-0.115424
-0.115424
-0.09975
-0.0717185
-0.0376948
-0.00464326
0.0219352
0.0391009
0.047553
0.050532
0.0510906
0.0504194
0.0472346
0.0392918
0.0263163
0.0118292
0.00212929
0.00248869
0.0130478
0.0283473
0.0403386
0.0436782
0.0392611
0.03256
0.0286085
0.0280097
0.0271245
0.021958
0.0114713
-0.00214227
-0.0153757
-0.0265958
-0.0366823
-0.0470119
-0.0575591
-0.0673651
-0.0756067
-0.0819418
-0.0870622
-0.0926718
-0.0998437
-0.107324
-0.113053
-0.116171
-0.116451
-0.112645
-0.102995
-0.087282
-0.0666235
-0.0420562
-0.0144446
-0.0137293
-0.0394984
-0.0618452
-0.0808782
-0.0959029
-0.105046
-0.108052
-0.107243
-0.104444
-0.0998434
-0.094102
-0.0892206
-0.0861355
-0.083355
-0.0792856
-0.0736607
-0.0668109
-0.058962
-0.0504978
-0.0411725
-0.0297791
-0.0159309
-0.00150879
0.0103875
0.0180869
0.0223076
0.025941
0.0317649
0.0393124
0.044421
0.0424731
0.0326055
0.0194264
0.0101084
0.00980008
0.0188519
0.0327128
0.0454141
0.0533321
0.0562885
0.0560646
0.0539351
0.0490266
0.0386812
0.0200175
-0.00752708
-0.0411114
-0.0753692
-0.103476
-0.119175
-0.119175
-0.103475
-0.0753676
-0.0411093
-0.00752477
0.0200196
0.0386826
0.0490269
0.0539341
0.0560626
0.056286
0.0533296
0.0454119
0.032711
0.0188505
0.00979908
0.010108
0.0194271
0.0326074
0.0424759
0.0444244
0.0393159
0.0317685
0.025945
0.022312
0.0180913
0.0103911
-0.00150673
-0.0159307
-0.0297803
-0.0411744
-0.0505001
-0.0589646
-0.066814
-0.073664
-0.0792885
-0.0833568
-0.0861357
-0.0892197
-0.0941011
-0.0998437
-0.104446
-0.107247
-0.108058
-0.105054
-0.095912
-0.0808865
-0.0618519
-0.039503
-0.0137309
-0.0121839
-0.0345978
-0.0535349
-0.0701347
-0.084159
-0.0931302
-0.096282
-0.0962178
-0.0950501
-0.0926721
-0.0892206
-0.0863741
-0.0848451
-0.0831837
-0.0803421
-0.0766991
-0.0726107
-0.0676013
-0.0613033
-0.0531816
-0.0424026
-0.0291952
-0.0155051
-0.00365493
0.00549919
0.0125099
0.0191058
0.0269897
0.0356762
0.041885
0.0419562
0.0351001
0.0250794
0.0180046
0.0185263
0.02735
0.0406541
0.0528783
0.0603736
0.0625636
0.0608125
0.0564653
0.0490747
0.0364882
0.0163192
-0.0118304
-0.0453207
-0.079052
-0.106551
-0.121898
-0.121897
-0.10655
-0.0790506
-0.0453188
-0.0118284
0.0163208
0.0364891
0.0490744
0.0564638
0.0608101
0.062561
0.0603712
0.0528765
0.0406529
0.0273492
0.0185261
0.0180051
0.0250812
0.0351032
0.0419603
0.0418893
0.03568
0.026993
0.0191088
0.0125131
0.00550253
-0.0036522
-0.0155039
-0.0291962
-0.0424054
-0.0531853
-0.0613069
-0.0676045
-0.0726136
-0.0767017
-0.0803444
-0.0831854
-0.0848456
-0.0863735
-0.0892197
-0.0926718
-0.095051
-0.0962206
-0.0962871
-0.0931369
-0.0841661
-0.0701412
-0.0535402
-0.0346014
-0.0121852
-0.0100639
-0.0281295
-0.0429421
-0.0566136
-0.0694548
-0.0786409
-0.0829264
-0.0848459
-0.0864328
-0.087062
-0.0861355
-0.0848451
-0.0838411
-0.0821647
-0.0795947
-0.0771276
-0.0750353
-0.0721527
-0.0674802
-0.0604668
-0.0509669
-0.0398288
-0.0286317
-0.018358
-0.00873993
0.000638688
0.010144
0.0201261
0.0299409
0.037283
0.0396239
0.0363078
0.0301036
0.0258274
0.0274637
0.0360341
0.048598
0.0602082
0.0672955
0.0688525
0.0657215
0.0592182
0.0492734
0.0342435
0.0123036
-0.0167532
-0.0504945
-0.0840337
-0.111198
-0.126367
-0.126367
-0.111198
-0.0840333
-0.0504939
-0.0167525
0.0123042
0.0342436
0.0492728
0.0592169
0.0657197
0.0688507
0.0672941
0.0602075
0.0485978
0.0360344
0.0274641
0.0258284
0.0301056
0.0363112
0.0396285
0.037288
0.0299454
0.0201293
0.0101461
0.000640231
-0.00873846
-0.0183568
-0.0286315
-0.0398302
-0.0509702
-0.0604713
-0.0674847
-0.0721563
-0.0750377
-0.0771293
-0.0795961
-0.0821659
-0.0838421
-0.0848456
-0.0861357
-0.0870622
-0.0864334
-0.0848474
-0.0829293
-0.078645
-0.0694593
-0.0566176
-0.0429454
-0.0281318
-0.0100647
-0.00765782
-0.0209547
-0.0314287
-0.0419771
-0.053474
-0.0630336
-0.0690117
-0.073532
-0.078236
-0.0819403
-0.083355
-0.0831837
-0.0821647
-0.0801049
-0.0776123
-0.0760093
-0.0752833
-0.0737403
-0.0701043
-0.0641786
-0.0566834
-0.0488607
-0.0413911
-0.033488
-0.0237613
-0.0121892
-2.26958e-05
0.0116409
0.0221125
0.0303127
0.0350052
0.0356096
0.0336457
0.032407
0.0351798
0.0434437
0.055393
0.0668931
0.0744404
0.0763971
0.0728345
0.0648291
0.0525854
0.0349571
0.0107378
-0.0200233
-0.0550058
-0.0893642
-0.117028
-0.132507
-0.132507
-0.117029
-0.0893654
-0.055007
-0.0200243
0.0107371
0.0349567
0.052585
0.0648286
0.0728339
0.0763966
0.0744404
0.0668937
0.0553942
0.043445
0.0351812
0.0324084
0.0336476
0.0356125
0.0350094
0.0303177
0.0221172
0.0116442
-2.13424e-05
-0.0121894
-0.0237622
-0.0334889
-0.0413921
-0.0488624
-0.0566862
-0.0641826
-0.0701085
-0.0737437
-0.0752855
-0.0760103
-0.0776129
-0.0801056
-0.0821659
-0.0831854
-0.0833568
-0.0819417
-0.078237
-0.0735326
-0.0690125
-0.0630348
-0.0534754
-0.0419783
-0.0314298
-0.0209556
-0.00765821
-0.0049529
-0.0130681
-0.0190498
-0.0263286
-0.0362654
-0.0461495
-0.0540234
-0.0613034
-0.0690287
-0.0756041
-0.0792856
-0.0803421
-0.0795947
-0.0776123
-0.0756111
-0.074878
-0.0750118
-0.0741314
-0.0711389
-0.0664238
-0.0614494
-0.0574501
-0.0538389
-0.0480676
-0.0380575
-0.0246148
-0.010682
0.00148719
0.011581
0.0200601
0.0270069
0.0317204
0.0342099
0.0361338
0.0401886
0.048493
0.0605365
0.0730418
0.0824198
0.0861442
0.0832815
0.0744824
0.0601456
0.0396512
0.0125195
-0.0207878
-0.0578919
-0.093842
-0.122567
-0.138649
-0.13865
-0.122569
-0.0938446
-0.0578946
-0.02079
0.0125181
0.0396506
0.0601457
0.0744828
0.0832821
0.0861449
0.082421
0.0730436
0.0605388
0.0484955
0.040191
0.0361359
0.0342118
0.0317226
0.0270099
0.0200638
0.0115848
0.00148988
-0.0106813
-0.0246163
-0.0380604
-0.0480707
-0.0538414
-0.0574521
-0.0614514
-0.0664264
-0.0711417
-0.074134
-0.0750136
-0.074879
-0.0756114
-0.0776129
-0.0795961
-0.0803444
-0.0792885
-0.0756067
-0.0690303
-0.0613034
-0.0540224
-0.0461479
-0.0362636
-0.0263271
-0.0190487
-0.0130676
-0.00495282
-0.00193172
-0.00444334
-0.0058292
-0.00976688
-0.0179288
-0.0279344
-0.0376163
-0.0475148
-0.058009
-0.0673619
-0.0736607
-0.0766991
-0.0771276
-0.0760093
-0.074878
-0.0747655
-0.0749838
-0.0739167
-0.0710375
-0.0673403
-0.0647083
-0.0640339
-0.063475
-0.0591729
-0.0489704
-0.0347658
-0.0208823
-0.0101016
-0.00184158
0.00606856
0.0148858
0.0235778
0.0305258
0.0357882
0.0415892
0.0507053
0.063828
0.0783985
0.0905678
0.0967987
0.0951111
0.0856996
0.069189
0.0455859
0.0152513
-0.0208111
-0.0600685
-0.0974817
-0.127069
-0.143604
-0.143605
-0.127071
-0.0974847
-0.0600715
-0.0208135
0.0152499
0.0455855
0.0691895
0.0857006
0.0951125
0.0968003
0.0905698
0.0784009
0.063831
0.0507087
0.0415925
0.0357911
0.030528
0.0235795
0.0148873
0.00607031
-0.00183968
-0.0101002
-0.0208824
-0.0347679
-0.0489742
-0.0591773
-0.0634788
-0.0640364
-0.0647097
-0.0673413
-0.0710386
-0.073918
-0.0749852
-0.0747667
-0.074879
-0.0760103
-0.0771293
-0.0767017
-0.073664
-0.0673651
-0.0580108
-0.0475145
-0.0376138
-0.0279304
-0.0179243
-0.00976256
-0.00582586
-0.0044414
-0.00193113
0.00107353
0.00396232
0.00674326
0.00583555
-0.000471649
-0.0102041
-0.0211522
-0.0330275
-0.045679
-0.0575562
-0.0668109
-0.0726107
-0.0750353
-0.0752833
-0.0750118
-0.0749838
-0.0744384
-0.0723651
-0.0689845
-0.0657506
-0.0646661
-0.0662216
-0.067715
-0.0646247
-0.0551413
-0.0421114
-0.0305847
-0.0231675
-0.0180575
-0.0114833
-0.0012957
0.0110183
0.0222932
0.0311343
0.0393261
0.0501132
0.0650838
0.0821716
0.0971684
0.105604
0.10465
0.0942388
0.0754057
0.048929
0.016021
-0.021842
-0.0621122
-0.0998927
-0.129494
-0.146008
-0.146008
-0.129495
-0.0998946
-0.0621142
-0.0218436
0.0160201
0.0489291
0.0754067
0.0942404
0.104652
0.105606
0.0971707
0.0821742
0.0650868
0.0501167
0.0393298
0.0311376
0.0222957
0.0110197
-0.00129528
-0.0114835
-0.0180578
-0.0231679
-0.0305858
-0.0421137
-0.0551449
-0.0646291
-0.067719
-0.0662243
-0.0646673
-0.0657507
-0.0689841
-0.072365
-0.0744391
-0.0749852
-0.0750136
-0.0752855
-0.0750377
-0.0726135
-0.066814
-0.057559
-0.0456806
-0.0330267
-0.0211488
-0.0101986
-0.000465006
0.00584212
0.00674862
0.00396569
0.00107465
0.00354868
0.0107007
0.0164981
0.0178376
0.0132854
0.00437402
-0.00688203
-0.019602
-0.0333423
-0.04701
-0.058962
-0.0676013
-0.0721527
-0.0737403
-0.0741314
-0.0739167
-0.0723651
-0.0690994
-0.0649939
-0.0617734
-0.0614284
-0.0642339
-0.0671428
-0.0654928
-0.0579006
-0.0477318
-0.040112
-0.0370443
-0.0355284
-0.0305221
-0.0192785
-0.00373797
0.0115933
0.0240399
0.0349145
0.0477008
0.064605
0.0839119
0.101063
0.110844
0.109875
0.0980934
0.0771688
0.0487577
0.0148062
-0.0229829
-0.0623463
-0.0988523
-0.127305
-0.14319
-0.14319
-0.127305
-0.0988529
-0.0623469
-0.0229832
0.0148064
0.0487587
0.0771705
0.0980956
0.109877
0.110847
0.101066
0.0839144
0.0646078
0.0477038
0.0349176
0.0240428
0.0115954
-0.00373713
-0.019279
-0.0305237
-0.0355304
-0.0370463
-0.0401141
-0.0477342
-0.0579036
-0.0654962
-0.0671461
-0.0642363
-0.0614296
-0.0617732
-0.0649928
-0.0690983
-0.0723649
-0.073918
-0.074134
-0.0737437
-0.0721563
-0.0676045
-0.0589646
-0.0470119
-0.0333429
-0.0196005
-0.00687799
0.00438035
0.0132931
0.0178456
0.0165049
0.0107052
0.00355022
0.00515852
0.0148804
0.0222189
0.0248796
0.0219416
0.0144317
0.00389153
-0.00850785
-0.0222158
-0.0366815
-0.0504978
-0.0613033
-0.0674802
-0.0701043
-0.0711389
-0.0710375
-0.0689845
-0.0649939
-0.0603719
-0.0570145
-0.0569111
-0.0603198
-0.0641906
-0.0639875
-0.0586472
-0.0516894
-0.0479883
-0.0489013
-0.0505069
-0.0468706
-0.0348666
-0.0168049
0.00172108
0.0169548
0.0297613
0.0437889
0.061774
0.082375
0.100802
0.1113
0.110139
0.0973622
0.075275
0.0463529
0.0130943
-0.0227634
-0.0594082
-0.093077
-0.119234
-0.133865
-0.133865
-0.119234
-0.0930767
-0.0594076
-0.0227623
0.0130959
0.0463551
0.0752777
0.0973651
0.110142
0.111303
0.100804
0.0823772
0.0617761
0.043791
0.0297633
0.0169565
0.00172199
-0.0168051
-0.034868
-0.046873
-0.0505098
-0.0489042
-0.047991
-0.0516919
-0.0586494
-0.0639895
-0.0641923
-0.0603211
-0.0569119
-0.0570145
-0.0603711
-0.0649928
-0.0689841
-0.0710386
-0.0711417
-0.0701085
-0.0674846
-0.0613069
-0.0505001
-0.0366823
-0.0222151
-0.00850544
0.00389593
0.014438
0.0219494
0.0248879
0.0222264
0.0148855
0.00516033
0.00580202
0.01632
0.0238746
0.0271894
0.0259119
0.0204179
0.0115039
0.000377556
-0.0123568
-0.0265959
-0.0411725
-0.0531816
-0.0604668
-0.0641786
-0.0664238
-0.0673403
-0.0657506
-0.0617734
-0.0570145
-0.0535774
-0.053479
-0.0569775
-0.0610992
-0.0615629
-0.0576113
-0.052842
-0.0518889
-0.0556447
-0.0595909
-0.0571979
-0.045099
-0.0258571
-0.00585278
0.0103683
0.0233803
0.0370794
0.0547819
0.0756412
0.0948008
0.106118
0.105545
0.0930719
0.0713663
0.043475
0.0122688
-0.0205033
-0.0533995
-0.0833261
-0.10648
-0.119442
-0.119441
-0.10648
-0.0833257
-0.0533985
-0.0205015
0.0122713
0.0434782
0.0713699
0.0930756
0.105549
0.106121
0.0948034
0.0756433
0.0547834
0.0370805
0.023381
0.0103684
-0.00585348
-0.0258587
-0.0451015
-0.0572009
-0.0595939
-0.0556475
-0.0518914
-0.0528442
-0.0576129
-0.0615638
-0.0610994
-0.0569773
-0.0534789
-0.0535774
-0.0570145
-0.0617732
-0.0657507
-0.0673413
-0.0664263
-0.0641825
-0.0604713
-0.0531853
-0.0411744
-0.0265958
-0.012355
0.00038076
0.0115084
0.0204237
0.0259188
0.0271969
0.0238816
0.0163249
0.0058038
0.00565944
0.0156495
0.0226881
0.026561
0.0273314
0.0245175
0.0179769
0.00882428
-0.00222785
-0.0153766
-0.0297791
-0.0424026
-0.0509669
-0.0566834
-0.0614494
-0.0647083
-0.0646661
-0.0614284
-0.0569111
-0.053479
-0.0530974
-0.0558807
-0.0589518
-0.0585287
-0.0543817
-0.0503058
-0.0507662
-0.0563126
-0.0620625
-0.0611237
-0.0500114
-0.0314131
-0.012125
0.00291791
0.0142538
0.0261556
0.0425511
0.0631415
0.0830814
0.0958838
0.0971236
0.0864983
0.0667221
0.0411699
0.0129274
-0.016257
-0.0451984
-0.0713701
-0.0915887
-0.102925
-0.102925
-0.0915886
-0.0713697
-0.0451975
-0.0162553
0.01293
0.0411733
0.0667262
0.0865027
0.0971279
0.0958875
0.0830842
0.0631432
0.0425518
0.0261555
0.0142531
0.00291662
-0.0121271
-0.031416
-0.0500149
-0.0611272
-0.0620655
-0.0563148
-0.0507678
-0.0503071
-0.0543826
-0.0585289
-0.0589511
-0.0558795
-0.0530965
-0.0534789
-0.0569119
-0.0614295
-0.0646673
-0.0647097
-0.0614513
-0.0566862
-0.0509702
-0.0424054
-0.0297803
-0.0153757
-0.00222518
0.00882807
0.0179813
0.0245224
0.0273368
0.0265668
0.0226934
0.0156533
0.00566085
0.00518728
0.014232
0.0208391
0.0257121
0.0290334
0.0293049
0.0254409
0.0185133
0.00945308
-0.00214419
-0.0159309
-0.0291952
-0.0398288
-0.0488607
-0.0574501
-0.0640339
-0.0662216
-0.0642339
-0.0603198
-0.0569775
-0.0558807
-0.0568551
-0.057319
-0.0544459
-0.0488719
-0.0446314
-0.0458732
-0.0527203
-0.0600663
-0.060902
-0.0517934
-0.0354497
-0.0186932
-0.00642898
0.00209045
0.011557
0.0264114
0.0468074
0.0678648
0.0827255
0.0865587
0.0786723
0.0617036
0.0392534
0.0144795
-0.0109784
-0.0361889
-0.059114
-0.0769758
-0.0870493
-0.0870493
-0.0769757
-0.0591138
-0.0361884
-0.0109774
0.0144814
0.0392563
0.0617075
0.0786769
0.0865634
0.0827295
0.0678676
0.0468087
0.0264113
0.011556
0.00208881
-0.0064311
-0.0186959
-0.0354531
-0.0517973
-0.0609057
-0.0600691
-0.052722
-0.0458739
-0.0446315
-0.0488719
-0.0544455
-0.0573182
-0.0568538
-0.0558795
-0.0569773
-0.0603211
-0.0642363
-0.0662243
-0.0640364
-0.0574521
-0.0488623
-0.0398302
-0.0291962
-0.0159307
-0.00214227
0.00945653
0.0185177
0.0254454
0.0293093
0.0290375
0.0257159
0.0208423
0.0142342
0.00518808
0.00467977
0.0128684
0.0193904
0.0256066
0.0315319
0.034665
0.0332006
0.028345
0.0213125
0.0114682
-0.00150879
-0.0155051
-0.0286317
-0.0413911
-0.0538389
-0.063475
-0.067715
-0.0671428
-0.0641906
-0.0610992
-0.0589518
-0.057319
-0.0543237
-0.0485535
-0.0416397
-0.0375822
-0.0398132
-0.0478774
-0.0566428
-0.059315
-0.0526889
-0.0393767
-0.025882
-0.016805
-0.0111446
-0.0039594
0.00947725
0.0296481
0.0516427
0.0683156
0.074542
0.0692882
0.0551086
0.0357877
0.0144492
-0.00744587
-0.0292077
-0.0492554
-0.0651133
-0.0741231
-0.0741232
-0.0651134
-0.0492555
-0.0292077
-0.00744541
0.0144504
0.0357898
0.0551116
0.069292
0.074546
0.0683191
0.051645
0.0296489
0.00947662
-0.00396108
-0.0111469
-0.0168075
-0.0258847
-0.0393798
-0.0526923
-0.0593184
-0.0566453
-0.0478785
-0.0398131
-0.0375814
-0.0416388
-0.0485528
-0.0543229
-0.0573182
-0.0589511
-0.0610994
-0.0641923
-0.0671461
-0.067719
-0.0634788
-0.0538414
-0.0413921
-0.0286315
-0.0155039
-0.00150673
0.0114713
0.0213166
0.0283498
0.0332054
0.0346693
0.0315352
0.0256087
0.0193916
0.012869
0.00467991
0.00394061
0.0108735
0.0169414
0.023942
0.0316239
0.0367306
0.0371123
0.0342538
0.0295468
0.0219537
0.0103875
-0.00365493
-0.018358
-0.033488
-0.0480676
-0.0591729
-0.0646247
-0.0654928
-0.0639875
-0.0615629
-0.0585287
-0.0544459
-0.0485535
-0.041009
-0.0341506
-0.0314042
-0.0350744
-0.0441405
-0.0537852
-0.0578064
-0.0533433
-0.0427645
-0.0320317
-0.025407
-0.0218506
-0.0165233
-0.00467142
0.014489
0.0362112
0.0533757
0.0608362
0.0573185
0.0452479
0.0284992
0.010092
-0.00863984
-0.0271409
-0.0442726
-0.0579467
-0.0657221
-0.0657223
-0.0579472
-0.0442731
-0.0271412
-0.00863979
0.0100925
0.0285003
0.0452495
0.0573207
0.0608387
0.053378
0.0362128
0.0144893
-0.00467243
-0.0165253
-0.021853
-0.0254095
-0.0320341
-0.0427669
-0.0533458
-0.0578088
-0.0537871
-0.0441414
-0.035074
-0.0314029
-0.0341489
-0.0410077
-0.0485528
-0.0544455
-0.0585288
-0.0615638
-0.0639895
-0.0654962
-0.0646291
-0.0591773
-0.0480707
-0.0334889
-0.0183568
-0.00365221
0.0103911
0.021958
0.0295514
0.0342586
0.0371169
0.0367346
0.0316265
0.023943
0.016941
0.0108727
0.00394021
0.00262814
0.00714448
0.0114882
0.0178204
0.0257743
0.0317548
0.0336302
0.0331328
0.0315268
0.0271197
0.0180869
0.00549919
-0.00873993
-0.0237613
-0.0380575
-0.0489704
-0.0551413
-0.0579006
-0.0586472
-0.0576113
-0.0543817
-0.0488719
-0.0416397
-0.0341506
-0.0288439
-0.0280375
-0.0327636
-0.0417323
-0.0508958
-0.0549907
-0.0515277
-0.0424893
-0.0332188
-0.0277764
-0.0254083
-0.0217278
-0.0121252
0.00457253
0.024103
0.0397833
0.0467354
0.0435528
0.0325012
0.0174672
0.0013243
-0.0146742
-0.0300622
-0.044187
-0.0554726
-0.061849
-0.0618491
-0.055473
-0.0441875
-0.0300628
-0.0146747
0.00132394
0.0174671
0.0325013
0.0435533
0.0467362
0.0397841
0.0241034
0.00457215
-0.0121265
-0.0217298
-0.0254106
-0.0277786
-0.0332206
-0.0424908
-0.051529
-0.0549919
-0.0508967
-0.0417327
-0.0327632
-0.0280362
-0.0288422
-0.0341489
-0.0416388
-0.0488719
-0.0543826
-0.0576128
-0.0586494
-0.0579036
-0.0551449
-0.0489742
-0.0380604
-0.0237622
-0.00873846
0.00550253
0.0180913
0.0271245
0.0315313
0.0331368
0.0336337
0.0317577
0.0257758
0.0178202
0.0114866
0.00714271
0.0026274
0.000991012
0.00234092
0.00393092
0.0082996
0.0152481
0.0212638
0.0244675
0.0266661
0.0286717
0.028005
0.0223076
0.0125099
0.000638688
-0.0121892
-0.0246148
-0.0347658
-0.0421114
-0.0477318
-0.0516894
-0.052842
-0.0503058
-0.0446314
-0.0375822
-0.0314042
-0.0280375
-0.028454
-0.0326476
-0.0395372
-0.0462474
-0.048654
-0.0445937
-0.0355861
-0.0264003
-0.0210679
-0.019366
-0.0175147
-0.0110378
0.0017716
0.0173863
0.0298152
0.0345895
0.0302676
0.0190143
0.00474797
-0.00980368
-0.0235198
-0.0361423
-0.0475833
-0.056774
-0.0619399
-0.06194
-0.0567743
-0.0475838
-0.0361433
-0.0235211
-0.00980514
0.00474657
0.0190131
0.0302667
0.0345889
0.0298146
0.0173856
0.00177051
-0.0110393
-0.0175165
-0.0193679
-0.0210695
-0.0264015
-0.0355868
-0.0445941
-0.048654
-0.0462473
-0.0395369
-0.0326471
-0.0284531
-0.0280362
-0.0314029
-0.0375814
-0.0446315
-0.0503071
-0.0528442
-0.0516919
-0.0477342
-0.0421137
-0.0347678
-0.0246163
-0.0121894
0.00064023
0.0125131
0.022312
0.0280097
0.0286757
0.0266688
0.0244693
0.0212647
0.0152478
0.00829799
0.00392847
0.00233878
0.000990178
-0.000188511
-0.00124904
-0.00206701
0.000262991
0.0059297
0.0117551
0.016169
0.0208633
0.0260578
0.0286043
0.025941
0.0191058
0.010144
-2.26958e-05
-0.010682
-0.0208823
-0.0305847
-0.040112
-0.0479883
-0.0518889
-0.0507662
-0.0458732
-0.0398132
-0.0350744
-0.0327636
-0.0326476
-0.0341712
-0.0369141
-0.0393751
-0.0385702
-0.0325765
-0.0224451
-0.0124555
-0.00670556
-0.00558274
-0.00587242
-0.00313125
0.0049685
0.0157462
0.0239751
0.0255876
0.0191388
0.00672104
-0.00771282
-0.0215678
-0.0338887
-0.0446629
-0.0542906
-0.0620852
-0.0664456
-0.0664458
-0.0620856
-0.0542914
-0.0446643
-0.0338906
-0.0215701
-0.00771527
0.00671876
0.0191369
0.0255861
0.0239737
0.0157449
0.00496708
-0.00313275
-0.00587385
-0.00558394
-0.00670643
-0.012456
-0.0224452
-0.0325762
-0.0385695
-0.0393741
-0.0369132
-0.0341704
-0.0326471
-0.0327632
-0.035074
-0.0398131
-0.0458739
-0.0507678
-0.0518914
-0.047991
-0.0401141
-0.0305858
-0.0208824
-0.0106813
-2.13465e-05
0.0101461
0.0191088
0.025945
0.0286085
0.0260612
0.020865
0.0161691
0.011754
0.00592757
0.00026013
-0.00206987
-0.00125105
-0.00018921
-0.000287569
-0.00174203
-0.00333413
-0.00188449
0.00321283
0.00913343
0.0145477
0.020964
0.0281333
0.0325561
0.0317649
0.0269897
0.0201261
0.0116409
0.00148719
-0.0101016
-0.0231675
-0.0370443
-0.0489013
-0.0556447
-0.0563126
-0.0527203
-0.0478774
-0.0441405
-0.0417323
-0.0395372
-0.0369141
-0.0343586
-0.0317603
-0.0271749
-0.0188379
-0.00731935
0.00362447
0.00988315
0.0104655
0.00804392
0.00702157
0.0103178
0.0161535
0.0200947
0.0184244
0.00962403
-0.00443138
-0.0199046
-0.0343227
-0.0467602
-0.0572093
-0.0662696
-0.0734957
-0.0774653
-0.0774656
-0.0734965
-0.066271
-0.0572111
-0.0467626
-0.0343255
-0.0199077
-0.00443449
0.00962125
0.0184222
0.020093
0.0161521
0.0103166
0.00702041
0.00804289
0.0104648
0.0098828