/*--------------------------------*- C++ -*----------------------------------*\
  =========                 |
  \\      /  F ield         | OpenFOAM: The Open Source CFD Toolbox
   \\    /   O peration     | Website:  https://openfoam.org
    \\  /    A nd           | Version:  10
     \\/     M anipulation  |
\*---------------------------------------------------------------------------*/
FoamFile
{
    format      ascii;
    class       volScalarField;
    location    "85";
    object      h;
}
// * * * * * * * * * * * * * * * * * * * * * * * * * * * * * * * * * * * * * //

dimensions      [0 1 0 0 0 0 0];

internalField   nonuniform List<scalar> 
10000
(
-0.00235868
-0.00689905
-0.0109928
-0.0145392
-0.0174949
-0.0196957
-0.0208488
-0.0207356
-0.0194388
-0.017382
-0.0151136
-0.012977
-0.0109329
-0.00867246
-0.00594659
-0.00284701
0.000191997
0.00265471
0.00425525
0.00506429
0.00537952
0.00550689
0.00561164
0.00566303
0.00548281
0.00490217
0.00393214
0.00280112
0.0017983
0.00107499
0.000626384
0.000398417
0.000348867
0.000432609
0.000608479
0.000899005
0.00137624
0.00202561
0.00268445
0.0031638
0.00337482
0.003291
0.00287514
0.00213836
0.0011993
0.000199575
-0.000767327
-0.00160558
-0.00219821
-0.00248707
-0.0024872
-0.00219858
-0.00160617
-0.000768052
0.000198809
0.0011986
0.00213781
0.00287478
0.00329087
0.00337495
0.00316418
0.00268502
0.0020263
0.00137697
0.000899712
0.00060908
0.00043304
0.000349103
0.000398466
0.000626263
0.00107472
0.00179791
0.00280066
0.00393164
0.00490163
0.00548226
0.00566251
0.0056112
0.00550653
0.00537923
0.00506404
0.00425503
0.00265455
0.000191914
-0.00284698
-0.00594643
-0.00867219
-0.0109326
-0.0129767
-0.0151133
-0.0173818
-0.0194387
-0.0207355
-0.0208487
-0.0196956
-0.0174948
-0.0145391
-0.0109927
-0.006899
-0.00235868
-0.00689905
-0.0201577
-0.0320572
-0.0422966
-0.0507621
-0.0569951
-0.0601625
-0.0596475
-0.0557121
-0.0496117
-0.0429659
-0.0367914
-0.0309802
-0.0246295
-0.0170017
-0.00834548
0.000104062
0.00689261
0.0112462
0.0134181
0.0142959
0.0147679
0.0152989
0.0157688
0.0156169
0.0143107
0.0118486
0.00886143
0.00615343
0.00413717
0.00279334
0.0019781
0.00159188
0.00153581
0.00173016
0.00227634
0.00340694
0.00509684
0.00689235
0.00825552
0.00891559
0.00876368
0.00766505
0.00564468
0.00304605
0.000268978
-0.00243199
-0.00478556
-0.00644973
-0.00725712
-0.00725739
-0.00645051
-0.00478679
-0.00243352
0.000267371
0.0030446
0.00564355
0.00766433
0.00876344
0.00891591
0.00825637
0.00689362
0.00509836
0.00340856
0.00227789
0.00173147
0.00153673
0.00159236
0.00197815
0.00279299
0.00413647
0.00615247
0.00886031
0.0118473
0.0143094
0.0156156
0.0157675
0.0152978
0.014767
0.0142951
0.0134175
0.0112456
0.00689223
0.000103917
-0.00834531
-0.0170011
-0.0246287
-0.0309793
-0.0367905
-0.0429652
-0.0496113
-0.0557118
-0.0596474
-0.0601623
-0.0569948
-0.0507616
-0.0422961
-0.0320569
-0.0201576
-0.006899
-0.0109928
-0.0320572
-0.0508033
-0.0667315
-0.0797037
-0.0890634
-0.0935596
-0.0922741
-0.0856741
-0.0757967
-0.0652493
-0.0556729
-0.046912
-0.0375354
-0.0263529
-0.0137069
-0.0014564
0.00824514
0.0143446
0.0173719
0.0187741
0.0199279
0.0215012
0.0232095
0.0240515
0.0230768
0.0201924
0.0163028
0.0125785
0.00959942
0.00732497
0.00557177
0.00425629
0.00332016
0.0027507
0.00280396
0.00390529
0.00605777
0.00859484
0.0106958
0.0118957
0.0119327
0.0105205
0.0076775
0.00394191
-8.62222e-05
-0.00404954
-0.00753874
-0.0100089
-0.0111982
-0.0111984
-0.0100093
-0.0075395
-0.0040505
-8.72207e-05
0.00394104
0.00767688
0.0105201
0.0119327
0.011896
0.0106965
0.00859592
0.00605903
0.00390661
0.0028052
0.00275171
0.00332081
0.00425654
0.00557162
0.00732444
0.00959857
0.0125774
0.0163015
0.0201909
0.0230752
0.0240498
0.0232079
0.0214998
0.0199268
0.0187731
0.0173712
0.0143441
0.00824484
-0.00145635
-0.0137064
-0.026352
-0.0375341
-0.0469106
-0.0556716
-0.0652484
-0.0757962
-0.0856739
-0.092274
-0.0935594
-0.0890631
-0.0797031
-0.0667308
-0.0508028
-0.0320569
-0.0109927
-0.0145392
-0.0422966
-0.0667315
-0.0871497
-0.103455
-0.114932
-0.120076
-0.11778
-0.108722
-0.0956175
-0.0819135
-0.0697799
-0.0590318
-0.0478107
-0.0345481
-0.0196173
-0.00528303
0.00589749
0.0128311
0.0164068
0.018556
0.0209876
0.0244212
0.0283122
0.0311782
0.0316218
0.0293893
0.0255287
0.0214295
0.0177538
0.0144443
0.0113427
0.00847488
0.00593264
0.00387563
0.00277553
0.00326398
0.00539838
0.008371
0.0111396
0.0130288
0.0135533
0.0122239
0.00903169
0.00467695
-9.13525e-05
-0.00485937
-0.00911427
-0.0121355
-0.0135802
-0.0135801
-0.0121352
-0.00911382
-0.00485884
-9.07548e-05
0.0046776
0.00903232
0.0122244
0.0135537
0.0130291
0.0111399
0.00837128
0.00539864
0.0032642
0.00277568
0.00387567
0.00593254
0.00847461
0.0113422
0.0144436
0.017753
0.0214285
0.0255276
0.0293879
0.0316203
0.0311766
0.0283106
0.0244198
0.0209865
0.0185551
0.0164063
0.0128308
0.0058976
-0.00528247
-0.0196163
-0.0345466
-0.047809
-0.0590301
-0.0697784
-0.0819125
-0.0956171
-0.108722
-0.11778
-0.120076
-0.114932
-0.103455
-0.087149
-0.0667308
-0.0422962
-0.0145391
-0.0174949
-0.0507621
-0.0797037
-0.103455
-0.122043
-0.134837
-0.140246
-0.137062
-0.126129
-0.110668
-0.0947496
-0.0809348
-0.0690204
-0.056848
-0.0425872
-0.0266178
-0.0114202
0.000301764
0.00759886
0.0117444
0.0150371
0.019334
0.0252445
0.0318938
0.0373395
0.0397757
0.0387721
0.0354449
0.0313188
0.0271007
0.0227281
0.0181134
0.0134585
0.00907503
0.00534147
0.00294902
0.00271135
0.00473503
0.00810201
0.0115778
0.0142692
0.015442
0.0143924
0.0110749
0.00632778
0.00103253
-0.00434121
-0.00919105
-0.01265
-0.0143017
-0.0143014
-0.0126491
-0.00918962
-0.00433943
0.00103446
0.00632967
0.0110766
0.0143937
0.0154428
0.0142695
0.0115778
0.00810165
0.00473447
0.00271068
0.00294829
0.00534074
0.00907433
0.0134578
0.0181126
0.0227272
0.0270997
0.0313178
0.0354437
0.0387707
0.0397742
0.0373379
0.0318922
0.0252431
0.0193329
0.0150364
0.0117442
0.00759909
0.000302519
-0.011419
-0.0266161
-0.0425852
-0.0568459
-0.0690184
-0.0809332
-0.0947487
-0.110668
-0.12613
-0.137063
-0.140246
-0.134838
-0.122042
-0.103455
-0.0797031
-0.0507616
-0.0174948
-0.0196957
-0.0569951
-0.0890634
-0.114932
-0.134837
-0.148366
-0.153962
-0.150364
-0.138472
-0.121775
-0.104701
-0.0900459
-0.0775956
-0.0650332
-0.050413
-0.0341488
-0.0188185
-0.00710176
0.000295286
0.00500182
0.00956364
0.015839
0.024219
0.0334912
0.0413456
0.0456744
0.0459163
0.0432414
0.039286
0.0347975
0.029705
0.0239803
0.0179947
0.0122688
0.0073699
0.0041577
0.00357589
0.0057509
0.009648
0.0138445
0.0172475
0.0189177
0.0179854
0.0143791
0.00906002
0.00305947
-0.0030523
-0.00857544
-0.0125286
-0.0144291
-0.0144288
-0.0125277
-0.00857397
-0.00305045
0.0030615
0.00906198
0.0143808
0.0179867
0.0189186
0.0172479
0.0138445
0.00964768
0.00575036
0.00357523
0.00415697
0.00736915
0.0122681
0.0179939
0.0239794
0.0297038
0.0347962
0.0392845
0.0432398
0.0459146
0.0456726
0.0413438
0.0334895
0.0242175
0.0158379
0.0095631
0.00500193
0.000296088
-0.00710031
-0.0188166
-0.0341465
-0.0504106
-0.065031
-0.0775937
-0.0900445
-0.104701
-0.121775
-0.138473
-0.150365
-0.153963
-0.148367
-0.134838
-0.114932
-0.0890631
-0.0569948
-0.0196956
-0.0208488
-0.0601625
-0.0935596
-0.120076
-0.140246
-0.153962
-0.159779
-0.156361
-0.144513
-0.127731
-0.110536
-0.0958031
-0.0833293
-0.0707799
-0.0562508
-0.0402562
-0.0254274
-0.0143338
-0.00740103
-0.00268229
0.0025479
0.0101017
0.0201489
0.0312037
0.0407174
0.0464142
0.0476749
0.0457295
0.0423085
0.0381873
0.0332489
0.027448
0.0212305
0.0152381
0.0101505
0.00693194
0.00660493
0.00928449
0.0138048
0.0185582
0.0222961
0.0239681
0.0226355
0.0182348
0.0118383
0.00465343
-0.00258276
-0.00904892
-0.0136792
-0.0159334
-0.0159333
-0.0136788
-0.00904831
-0.00258193
0.00465437
0.0118392
0.0182356
0.0226363
0.0239687
0.0222966
0.0185586
0.013805
0.00928461
0.00660499
0.00693191
0.0101503
0.0152377
0.0212298
0.0274469
0.0332474
0.0381855
0.0423064
0.0457273
0.0476727
0.0464121
0.0407155
0.031202
0.0201475
0.0101008
0.00254762
-0.00268178
-0.0073997
-0.0143318
-0.025425
-0.0402537
-0.0562485
-0.0707779
-0.0833278
-0.0958022
-0.110536
-0.127732
-0.144514
-0.156362
-0.15978
-0.153963
-0.140246
-0.120076
-0.0935594
-0.0601623
-0.0208487
-0.0207356
-0.0596475
-0.0922741
-0.11778
-0.137062
-0.150364
-0.156361
-0.153581
-0.142577
-0.126622
-0.110113
-0.0959004
-0.0838263
-0.071669
-0.057702
-0.0426117
-0.0290838
-0.0195506
-0.0141487
-0.0106232
-0.00605115
0.00140599
0.0117984
0.0234731
0.0337525
0.0402926
0.0424662
0.0415429
0.0392945
0.0364802
0.0328804
0.0283236
0.0231858
0.0181079
0.013816
0.011346
0.0117705
0.0151752
0.0202657
0.0252659
0.0288131
0.0298353
0.0274316
0.0215958
0.0135017
0.0045466
-0.00430539
-0.0120758
-0.017628
-0.0203698
-0.0203699
-0.0176283
-0.0120762
-0.0043058
0.00454621
0.0135014
0.0215956
0.0274315
0.0298355
0.0288135
0.0252665
0.0202664
0.0151759
0.0117711
0.0113466
0.0138163
0.0181078
0.0231851
0.0283223
0.0328787
0.036478
0.0392921
0.0415405
0.0424639
0.0402906
0.0337509
0.0234718
0.0117974
0.00140553
-0.00605095
-0.0106222
-0.0141469
-0.0195483
-0.0290813
-0.0426095
-0.0577001
-0.0716677
-0.0838255
-0.0959002
-0.110113
-0.126623
-0.142578
-0.153583
-0.156362
-0.150365
-0.137063
-0.11778
-0.0922741
-0.0596474
-0.0207355
-0.0194388
-0.0557121
-0.0856741
-0.108722
-0.126129
-0.138472
-0.144513
-0.142577
-0.132843
-0.11822
-0.102852
-0.0895181
-0.0781488
-0.0667316
-0.0538008
-0.0402535
-0.0288402
-0.0218663
-0.01919
-0.0182331
-0.0157933
-0.00985925
-0.000353301
0.0109971
0.0214317
0.0285655
0.031763
0.0322813
0.0318541
0.0311746
0.0298844
0.0276039
0.0245144
0.0211613
0.0182968
0.0170368
0.0184917
0.0227087
0.0282862
0.0333033
0.0362906
0.0361862
0.0322011
0.0244424
0.0141816
0.00299973
-0.0078764
-0.0172724
-0.0239723
-0.0273241
-0.0273243
-0.0239728
-0.0172731
-0.00787731
0.00299878
0.0141807
0.0244416
0.0322006
0.036186
0.0362907
0.0333037
0.0282867
0.0227093
0.0184922
0.0170372
0.0182968
0.0211609
0.0245134
0.0276024
0.0298825
0.0311724
0.0318519
0.0322792
0.0317613
0.0285643
0.021431
0.0109967
-0.000353343
-0.00985889
-0.0157924
-0.0182316
-0.0191879
-0.021864
-0.028838
-0.0402518
-0.0537997
-0.0667312
-0.078149
-0.0895187
-0.102853
-0.118221
-0.132844
-0.142578
-0.144514
-0.138473
-0.12613
-0.108722
-0.0856739
-0.0557118
-0.0194387
-0.017382
-0.0496117
-0.0757967
-0.0956175
-0.110668
-0.121775
-0.127731
-0.126622
-0.11822
-0.105024
-0.0908973
-0.0785454
-0.068019
-0.057548
-0.0459375
-0.0342859
-0.0254121
-0.0215319
-0.0222713
-0.0247282
-0.0253384
-0.0217796
-0.0138294
-0.00324814
0.00710441
0.0147716
0.0190782
0.0212188
0.0228344
0.0245372
0.0258478
0.0261682
0.0254342
0.0240629
0.0228499
0.0230096
0.0256681
0.0308166
0.0369741
0.0420981
0.0445787
0.0433253
0.0376836
0.027922
0.0154154
0.00190573
-0.0111164
-0.0222579
-0.0302047
-0.0342263
-0.0342264
-0.0302049
-0.0222582
-0.0111168
0.00190531
0.015415
0.0279216
0.0376833
0.0433251
0.0445786
0.0420979
0.0369738
0.0308163
0.0256676
0.0230089
0.0228489
0.0240616
0.0254325
0.0261662
0.0258457
0.0245352
0.0228328
0.0212177
0.0190777
0.0147717
0.00710497
-0.00324729
-0.0138284
-0.0217783
-0.0253368
-0.0247261
-0.022269
-0.0215297
-0.0254103
-0.0342848
-0.0459373
-0.0575484
-0.06802
-0.0785467
-0.0908986
-0.105026
-0.118221
-0.126623
-0.127732
-0.121775
-0.110668
-0.0956171
-0.0757962
-0.0496112
-0.0173818
-0.0151136
-0.0429659
-0.0652493
-0.0819135
-0.0947496
-0.104701
-0.110536
-0.110113
-0.102852
-0.0908973
-0.0778658
-0.0664086
-0.0566855
-0.0471299
-0.0367641
-0.0268449
-0.0202643
-0.0192177
-0.0231984
-0.0290386
-0.03279
-0.0317492
-0.0254981
-0.01583
-0.00573682
0.00222227
0.00731804
0.0106787
0.0138626
0.0174421
0.0208856
0.0234355
0.0248087
0.025308
0.025785
0.0275356
0.0316481
0.0380241
0.0451295
0.050824
0.0533106
0.0513933
0.0445311
0.0331827
0.0188361
0.00336456
-0.0115088
-0.0241866
-0.0332565
-0.037895
-0.0378949
-0.0332561
-0.024186
-0.0115082
0.00336528
0.0188368
0.0331834
0.0445315
0.0513934
0.0533103
0.0508232
0.0451283
0.0380226
0.0316463
0.0275335
0.0257827
0.0253056
0.0248063
0.0234332
0.0208836
0.0174406
0.0138618
0.0106787
0.00731868
0.00222352
-0.00573517
-0.0158281
-0.0254963
-0.0317473
-0.0327879
-0.0290362
-0.0231961
-0.0192158
-0.0202629
-0.0268444
-0.0367644
-0.0471309
-0.0566869
-0.0664103
-0.0778674
-0.0908986
-0.102853
-0.110113
-0.110536
-0.104701
-0.0947486
-0.0819125
-0.0652484
-0.0429652
-0.0151133
-0.012977
-0.0367914
-0.0556729
-0.0697799
-0.0809348
-0.0900459
-0.0958031
-0.0959004
-0.0895181
-0.0785454
-0.0664086
-0.0556982
-0.0466242
-0.0377339
-0.0281831
-0.019344
-0.0142041
-0.0150418
-0.0213706
-0.0298882
-0.0363237
-0.0376011
-0.0331037
-0.0246566
-0.0153737
-0.00788848
-0.00293968
0.000593753
0.00425786
0.0086644
0.0133175
0.0173866
0.0204319
0.0226613
0.0249534
0.0286133
0.0346036
0.0426891
0.0513004
0.0582299
0.0614732
0.0596695
0.0523535
0.0401759
0.0247402
0.00802578
-0.00806071
-0.0217692
-0.0316243
-0.0367156
-0.0367152
-0.0316235
-0.021768
-0.00805922
0.00802744
0.0247419
0.0401774
0.0523546
0.05967
0.0614729
0.0582289
0.0512987
0.0426869
0.034601
0.0286103
0.0249502
0.0226582
0.0204291
0.0173842
0.0133157
0.00866337
0.00425773
0.000594462
-0.00293829
-0.00788659
-0.0153715
-0.0246544
-0.0331016
-0.0375989
-0.0363215
-0.0298861
-0.0213686
-0.0150404
-0.0142033
-0.019344
-0.0281838
-0.0377352
-0.0466258
-0.0557
-0.0664103
-0.0785467
-0.0895187
-0.0959001
-0.0958022
-0.0900445
-0.0809332
-0.0697784
-0.0556716
-0.0367905
-0.0129767
-0.0109329
-0.0309802
-0.046912
-0.0590318
-0.0690204
-0.0775956
-0.0833293
-0.0838263
-0.0781488
-0.068019
-0.0566855
-0.0466242
-0.0380065
-0.0294019
-0.020038
-0.0113923
-0.00659786
-0.00813253
-0.0157005
-0.0260382
-0.0346758
-0.0382251
-0.0358754
-0.0294398
-0.0220698
-0.0163661
-0.0129742
-0.0106898
-0.00789748
-0.00387275
0.00099939
0.00589425
0.0102722
0.0142459
0.0186533
0.0246995
0.0331186
0.0434801
0.0541778
0.0629683
0.0676614
0.0667222
0.0597309
0.0475034
0.0317455
0.0145288
-0.00209066
-0.0162658
-0.0265109
-0.0318552
-0.0318548
-0.02651
-0.0162644
-0.00208898
0.0145307
0.0317474
0.0475051
0.0597321
0.0667227
0.0676611
0.0629672
0.054176
0.0434778
0.0331157
0.0246962
0.0186499
0.0142428
0.0102696
0.00589216
0.000998025
-0.00387324
-0.00789711
-0.0106887
-0.0129725
-0.0163642
-0.0220678
-0.0294379
-0.0358736
-0.0382234
-0.0346741
-0.0260366
-0.0156992
-0.00813179
-0.00659776
-0.0113928
-0.020039
-0.0294033
-0.0380082
-0.0466258
-0.0566869
-0.0680199
-0.0781489
-0.0838255
-0.0833277
-0.0775937
-0.0690184
-0.0590301
-0.0469106
-0.0309793
-0.0109326
-0.00867246
-0.0246295
-0.0375354
-0.0478107
-0.056848
-0.0650332
-0.0707799
-0.071669
-0.0667316
-0.057548
-0.0471299
-0.0377339
-0.0294019
-0.0206795
-0.0108692
-0.00159277
0.00380864
0.00256786
-0.00534073
-0.0168545
-0.0274536
-0.0335193
-0.0340367
-0.0307178
-0.0266102
-0.0241314
-0.0237184
-0.0240217
-0.0233214
-0.0207435
-0.0165051
-0.0113583
-0.00589976
-0.00012186
0.00670679
0.015596
0.0269622
0.040114
0.0533738
0.0644712
0.0710712
0.0714973
0.0653602
0.0535925
0.037971
0.0206619
0.00388025
-0.0104418
-0.0208385
-0.0263081
-0.0263079
-0.0208379
-0.0104408
0.00388148
0.0206633
0.0379723
0.0535935
0.0653608
0.0714974
0.0710706
0.0644699
0.053372
0.0401117
0.0269596
0.0155932
0.00670407
-0.0001242
-0.00590159
-0.0113595
-0.0165056
-0.0207433
-0.0233206
-0.0240204
-0.0237169
-0.0241298
-0.0266088
-0.0307165
-0.0340356
-0.0335182
-0.0274525
-0.0168537
-0.00534032
0.00256771
0.00380796
-0.00159385
-0.0108705
-0.0206808
-0.0294033
-0.0377352
-0.0471309
-0.0575484
-0.0667312
-0.0716677
-0.0707779
-0.065031
-0.0568459
-0.047809
-0.0375341
-0.0246287
-0.00867218
-0.00594659
-0.0170017
-0.0263529
-0.0345481
-0.0425872
-0.050413
-0.0562508
-0.057702
-0.0538008
-0.0459375
-0.0367641
-0.0281831
-0.020038
-0.0108692
-0.000122025
0.0103701
0.0170205
0.0167521
0.00916441
-0.00299882
-0.015316
-0.0240372
-0.0279379
-0.0285326
-0.0286274
-0.0303281
-0.033795
-0.0375378
-0.0397635
-0.0394457
-0.0365759
-0.0317592
-0.0256015
-0.0181887
-0.00891423
0.00299902
0.0176002
0.0338714
0.0499938
0.0636353
0.0723406
0.0743339
0.0692522
0.0580921
0.0426609
0.0252314
0.00822551
-0.00629105
-0.0168535
-0.0224441
-0.022444
-0.0168534
-0.00629073
0.00822597
0.0252319
0.0426612
0.058092
0.0692517
0.074333
0.0723393
0.0636336
0.0499918
0.0338691
0.0175979
0.00299687
-0.00891596
-0.0181899
-0.0256021
-0.0317592
-0.0365753
-0.0394446
-0.0397622
-0.0375364
-0.0337937
-0.0303269
-0.0286265
-0.0285319
-0.0279374
-0.0240367
-0.0153156
-0.00299873
0.00916401
0.0167511
0.0170191
0.0103685
-0.000123541
-0.0108705
-0.020039
-0.0281838
-0.0367644
-0.0459372
-0.0537997
-0.0577001
-0.0562485
-0.0504106
-0.0425852
-0.0345466
-0.026352
-0.0170011
-0.00594642
-0.00284701
-0.00834548
-0.0137069
-0.0196173
-0.0266178
-0.0341488
-0.0402562
-0.0426117
-0.0402535
-0.0342859
-0.0268449
-0.019344
-0.0113923
-0.00159277
0.0103701
0.0224063
0.0307154
0.0319759
0.0254328
0.0134301
0.00013709
-0.0107007
-0.0176878
-0.0220869
-0.026378
-0.0322961
-0.0397299
-0.0471159
-0.0526601
-0.0551915
-0.0544047
-0.0506594
-0.044497
-0.0360475
-0.0247868
-0.0101391
0.00757939
0.0269772
0.0460112
0.0622214
0.0730248
0.0765716
0.072525
0.0619059
0.0465154
0.0287325
0.011229
-0.0037266
-0.0146152
-0.0203959
-0.020396
-0.0146155
-0.00372689
0.0112286
0.028732
0.0465145
0.0619045
0.0725232
0.0765695
0.0730225
0.062219
0.0460087
0.0269749
0.00757734
-0.0101406
-0.0247876
-0.0360475
-0.0444963
-0.0506582
-0.0544031
-0.0551896
-0.0526582
-0.0471143
-0.0397287
-0.0322951
-0.0263774
-0.0220865
-0.0176876
-0.0107005
0.000137072
0.0134297
0.0254319
0.0319745
0.0307135
0.0224044
0.0103685
-0.00159382
-0.0113928
-0.019344
-0.0268444
-0.0342848
-0.0402518
-0.0426094
-0.0402537
-0.0341465
-0.0266161
-0.0196163
-0.0137064
-0.0083453
-0.00284697
0.000191997
0.000104062
-0.0014564
-0.00528303
-0.0114202
-0.0188185
-0.0254274
-0.0290838
-0.0288402
-0.0254121
-0.0202643
-0.0142041
-0.00659786
0.00380864
0.0170205
0.0307154
0.0409985
0.0444423
0.0399928
0.0295155
0.0167452
0.00523262
-0.00355749
-0.0106395
-0.0181421
-0.0274394
-0.0382094
-0.048905
-0.0578007
-0.063584
-0.0655791
-0.0637935
-0.0586108
-0.05013
-0.0378325
-0.0212664
-0.00105932
0.0210258
0.0426712
0.0612324
0.073973
0.078968
0.0758988
0.0657924
0.0504202
0.0322357
0.0141407
-0.00136922
-0.0126711
-0.0186796
-0.0186798
-0.0126716
-0.00137004
0.0141395
0.0322341
0.0504181
0.0657898
0.0758958
0.0789649
0.0739697
0.0612292
0.0426683
0.0210233
-0.00106114
-0.0212673
-0.0378324
-0.050129
-0.0586092
-0.0637914
-0.0655768
-0.0635816
-0.0577985
-0.0489033
-0.0382081
-0.0274385
-0.0181415
-0.0106391
-0.00355728
0.0052327
0.016745
0.029515
0.0399917
0.0444407
0.0409966
0.0307136
0.0170192
0.00380799
-0.00659772
-0.0142033
-0.0202629
-0.0254103
-0.028838
-0.0290813
-0.025425
-0.0188166
-0.0114189
-0.00528247
-0.00145635
0.000103923
0.00019192
0.00265471
0.00689261
0.00824514
0.00589749
0.000301764
-0.00710176
-0.0143338
-0.0195506
-0.0218663
-0.0215319
-0.0192177
-0.0150418
-0.00813253
0.00256786
0.0167521
0.0319759
0.0444423
0.0507889
0.049714
0.0425011
0.0322371
0.0220519
0.013336
0.00527972
-0.00390971
-0.0152924
-0.0284095
-0.0417958
-0.0538296
-0.0630588
-0.0683977
-0.0694251
-0.0662828
-0.0589664
-0.0468918
-0.0296425
-0.00805774
0.0158002
0.0393606
0.0597866
0.0741731
0.0804946
0.0784256
0.0689955
0.0539392
0.0357209
0.0173649
0.00153042
-0.0100476
-0.0162165
-0.0162168
-0.0100484
0.00152911
0.017363
0.0357183
0.0539361
0.068992
0.0784219
0.0804907
0.0741693
0.059783
0.0393575
0.0157978
-0.00805916
-0.0296429
-0.0468912
-0.0589649
-0.0662808
-0.0694227
-0.0683953
-0.0630564
-0.0538276
-0.0417943
-0.0284084
-0.0152916
-0.00390902
0.00528022
0.0133363
0.0220521
0.032237
0.0425006
0.0497131
0.0507875
0.0444407
0.0319745
0.0167512
0.00256775
-0.00813175
-0.0150403
-0.0192157
-0.0215297
-0.0218639
-0.0195483
-0.0143318
-0.00710029
0.000302527
0.0058976
0.00824484
0.00689223
0.00265455
0.00425525
0.0112462
0.0143446
0.0128311
0.00759886
0.000295286
-0.00740103
-0.0141487
-0.01919
-0.0222713
-0.0231984
-0.0213706
-0.0157005
-0.00534073
0.00916441
0.0254328
0.0399928
0.049714
0.0530727
0.0506497
0.0446799
0.0376682
0.0308004
0.0234182
0.0140301
0.00183335
-0.0126333
-0.0280096
-0.0427787
-0.0553654
-0.0642968
-0.0687102
-0.0684581
-0.0633861
-0.0528061
-0.0362664
-0.0146942
0.00968417
0.0341426
0.0557071
0.0713197
0.0788223
0.0778377
0.0693907
0.055183
0.037612
0.0196635
0.00402557
-0.00749254
-0.0136578
-0.0136581
-0.00749358
0.00402371
0.0196607
0.0376085
0.055179
0.0693865
0.0778334
0.078818
0.0713156
0.0557035
0.0341397
0.00968234
-0.014695
-0.0362662
-0.052805
-0.0633843
-0.068456
-0.068708
-0.0642947
-0.0553636
-0.0427773
-0.0280085
-0.0126324
0.00183413
0.0140308
0.0234187
0.0308007
0.0376683
0.0446798
0.0506494
0.0530721
0.0497131
0.0399917
0.0254319
0.00916404
-0.00534028
-0.0156992
-0.0213686
-0.0231961
-0.022269
-0.0191879
-0.0141469
-0.00739969
0.000296092
0.00759909
0.0128308
0.0143441
0.0112456
0.00425504
0.00506429
0.0134181
0.0173719
0.0164068
0.0117444
0.00500182
-0.00268229
-0.0106232
-0.0182331
-0.0247282
-0.0290386
-0.0298882
-0.0260382
-0.0168545
-0.00299882
0.0134301
0.0295155
0.0425011
0.0506497
0.0537406
0.0530186
0.0502486
0.0463429
0.0407554
0.0322509
0.0202247
0.00525409
-0.0114032
-0.0283223
-0.0438401
-0.0561755
-0.0640785
-0.0671124
-0.0649629
-0.0568414
-0.0422269
-0.0220178
0.00155671
0.0257551
0.0475687
0.0638422
0.0722739
0.0723814
0.0651583
0.0522723
0.0359935
0.0191247
0.00424306
-0.00683138
-0.0127986
-0.0127991
-0.00683285
0.00424052
0.0191211
0.0359891
0.0522675
0.0651535
0.0723767
0.0722695
0.0638382
0.0475655
0.025753
0.00155575
-0.0220177
-0.0422259
-0.0568398
-0.064961
-0.0671104
-0.0640767
-0.056174
-0.0438391
-0.0283217
-0.0114028
0.00525454
0.0202251
0.0322513
0.0407557
0.0463431
0.0502486
0.0530186
0.0537405
0.0506494
0.0425006
0.029515
0.0134297
-0.00299871
-0.0168536
-0.0260365
-0.0298861
-0.0290362
-0.0247261
-0.0182316
-0.0106222
-0.00268178
0.00500192
0.0117441
0.0164063
0.0173712
0.0134175
0.00506404
0.00537952
0.0142959
0.0187741
0.018556
0.0150371
0.00956364
0.0025479
-0.00605115
-0.0157933
-0.0253384
-0.03279
-0.0363237
-0.0346758
-0.0274536
-0.015316
0.00013709
0.0167452
0.0322371
0.0446799
0.0530186
0.0574811
0.059092
0.0584921
0.0552205
0.0482386
0.0370699
0.0222867
0.00504825
-0.0132954
-0.0310285
-0.0461616
-0.0571544
-0.0633251
-0.0642235
-0.0589985
-0.047069
-0.0292294
-0.00757905
0.0152553
0.0363461
0.0525399
0.0614296
0.0623939
0.0563477
0.0449057
0.0301861
0.0147425
0.000960523
-0.0093934
-0.0150049
-0.0150056
-0.00939542
0.000957247
0.0147381
0.030181
0.0449003
0.0563425
0.062389
0.0614253
0.0525364
0.0363438
0.0152542
-0.00757898
-0.0292284
-0.0470673
-0.0589964
-0.0642216
-0.0633235
-0.0571531
-0.0461609
-0.0310282
-0.0132955
0.00504809
0.0222867
0.03707
0.0482387
0.0552204
0.0584919
0.0590918
0.0574809
0.0530186
0.0446798
0.032237
0.016745
0.00013708
-0.0153156
-0.0274525
-0.034674
-0.0363215
-0.0327879
-0.0253368
-0.0157924
-0.00605097
0.00254761
0.00956308
0.0150364
0.0185551
0.0187731
0.0142951
0.00537923
0.00550689
0.0147679
0.0199279
0.0209876
0.019334
0.015839
0.0101017
0.00140599
-0.00985925
-0.0217796
-0.0317492
-0.0376011
-0.0382251
-0.0335193
-0.0240372
-0.0107007
0.00523262
0.0220519
0.0376682
0.0502486
0.059092
0.0645755
0.0671123
0.0662987
0.0612113
0.0514104
0.0374053
0.020254
0.00125805
-0.0178223
-0.0348685
-0.048157
-0.0568343
-0.0603608
-0.0578831
-0.0488098
-0.0338192
-0.0148169
0.00576521
0.0251822
0.0404132
0.0490488
0.0503397
0.0450675
0.034755
0.0213777
0.00726669
-0.00538506
-0.0149156
-0.0200839
-0.0200848
-0.0149181
-0.00538892
0.00726186
0.0213723
0.0347494
0.0450622
0.0503349
0.049045
0.0404105
0.0251809
0.00576521
-0.0148159
-0.0338174
-0.0488075
-0.0578808
-0.0603588
-0.0568329
-0.0481563
-0.0348683
-0.0178227
0.00125746
0.0202534
0.037405
0.0514102
0.0612111
0.0662982
0.0671118
0.064575
0.0590918
0.0502486
0.0376683
0.0220521
0.0052327
-0.0107005
-0.0240367
-0.0335182
-0.0382234
-0.037599
-0.0317473
-0.0217783
-0.00985891
0.00140551
0.0101008
0.0158379
0.0193329
0.0209865
0.0199268
0.014767
0.00550653
0.00561164
0.0152989
0.0215012
0.0244212
0.0252445
0.024219
0.0201489
0.0117984
-0.000353301
-0.0138294
-0.0254981
-0.0331037
-0.0358754
-0.0340367
-0.0279379
-0.0176878
-0.00355749
0.013336
0.0308004
0.0463429
0.0584921
0.0671123
0.0724458
0.0741126
0.0712118
0.0632316
0.0505446
0.0340993
0.0151916
-0.00434304
-0.0222949
-0.036849
-0.0470624
-0.0523681
-0.0519822
-0.0453808
-0.033173
-0.0170753
0.000701787
0.017668
0.0310702
0.0386395
0.0395577
0.0344378
0.0246662
0.0121022
-0.00106629
-0.0127899
-0.0215454
-0.0262569
-0.0262579
-0.0215481
-0.0127939
-0.00107101
0.0120972
0.0246611
0.0344331
0.0395536
0.0386366
0.0310687
0.0176679
0.000702838
-0.0170735
-0.0331707
-0.0453783
-0.05198
-0.0523664
-0.0470614
-0.0368487
-0.0222952
-0.00434379
0.0151908
0.0340986
0.0505441
0.0632311
0.0712113
0.0741119
0.0724451
0.0671118
0.0584919
0.0463431
0.0308007
0.0133364
-0.00355727
-0.0176876
-0.0279373
-0.0340356
-0.0358736
-0.0331016
-0.0254963
-0.0138284
-0.000353353
0.0117974
0.0201475
0.0242175
0.0252431
0.0244198
0.0214998
0.0152978
0.0056112
0.00566303
0.0157688
0.0232095
0.0283122
0.0318938
0.0334912
0.0312037
0.0234731
0.0109971
-0.00324814
-0.01583
-0.0246566
-0.0294398
-0.0307178
-0.0285326
-0.0220869
-0.0106395
0.00527972
0.0234182
0.0407554
0.0552205
0.0662987
0.0741126
0.0782798
0.0778397
0.0721065
0.0612425
0.046077
0.0279483
0.00881812
-0.00901801
-0.0237163
-0.0343178
-0.040293
-0.0410034
-0.0360825
-0.0261466
-0.0127629
0.00207509
0.0161682
0.0271277
0.0329568
0.0328595
0.0272896
0.0174745
0.00517911
-0.00748372
-0.0185637
-0.0266927
-0.0310059
-0.0310067
-0.026695
-0.018567
-0.00748752
0.00517518
0.0174707
0.0272863
0.0328569
0.0329553
0.0271276
0.0161693
0.00207698
-0.0127606
-0.0261442
-0.0360803
-0.0410016
-0.0402917
-0.0343173
-0.0237165
-0.0090188
0.00881706
0.0279473
0.0460762
0.0612419
0.072106
0.077839
0.0782791
0.0741119
0.0662982
0.0552204
0.0407557
0.0234187
0.00528023
-0.0106391
-0.0220865
-0.0285319
-0.0307165
-0.0294379
-0.0246544
-0.0158281
-0.00324729
0.0109967
0.0234718
0.031202
0.0334895
0.0318922
0.0283106
0.0232079
0.0157675
0.00566252
0.00548281
0.0156169
0.0240515
0.0311782
0.0373395
0.0413456
0.0407174
0.0337525
0.0214317
0.00710441
-0.00573682
-0.0153737
-0.0220698
-0.0266102
-0.0286274
-0.026378
-0.0181421
-0.00390971
0.0140301
0.0322509
0.0482386
0.0612113
0.0712118
0.0778397
0.080028
0.0768563
0.0682254
0.0548353
0.0380982
0.0201405
0.00335273
-0.0104202
-0.0202513
-0.0257069
-0.026368
-0.0221119
-0.0136345
-0.00239062
0.00983127
0.0211181
0.0294642
0.0332153
0.0316956
0.0252673
0.0150198
0.00263219
-0.00984505
-0.0205567
-0.0282825
-0.0323317
-0.0323322
-0.0282838
-0.0205584
-0.00984706
0.00263026
0.0150182
0.0252662
0.0316952
0.0332159
0.0294656
0.0211202
0.00983372
-0.00238819
-0.0136323
-0.0221101
-0.0263668
-0.0257064
-0.0202515
-0.010421
0.0033515
0.0201391
0.038097
0.0548345
0.0682248
0.0768558
0.0800273
0.077839
0.0712113
0.0612111
0.0482387
0.0322513
0.0140308
-0.00390901
-0.0181414
-0.0263773
-0.0286265
-0.0266088
-0.0220678
-0.0153715
-0.00573516
0.00710498
0.021431
0.0337509
0.0407155
0.0413438
0.0373379
0.0311766
0.0240498
0.0156156
0.00548227
0.00490217
0.0143107
0.0230768
0.0316218
0.0397757
0.0456744
0.0464142
0.0402926
0.0285655
0.0147716
0.00222227
-0.00788848
-0.0163661
-0.0241314
-0.0303281
-0.0322961
-0.0274394
-0.0152924
0.00183335
0.0202247
0.0370699
0.0514104
0.0632316
0.0721065
0.0768563
0.0763179
0.0701108
0.058791
0.0438492
0.0275964
0.0125415
0.000541469
-0.00752549
-0.0113691
-0.010861
-0.00619419
0.00180714
0.011783
0.0221359
0.0311858
0.037239
0.0389706
0.0359041
0.0284221
0.0175432
0.00486508
-0.00765487
-0.0182814
-0.0259064
-0.0298982
-0.0298981
-0.0259061
-0.018281
-0.00765434
0.00486589
0.0175445
0.028424
0.0359065
0.0389734
0.037242
0.0311888
0.0221386
0.0117853
0.00180887
-0.00619311
-0.0108606
-0.0113695
-0.00752644
0.000540113
0.0125399
0.0275949
0.0438479
0.0587902
0.0701102
0.0763173
0.0768558
0.072106
0.0632311
0.0514102
0.03707
0.0202252
0.00183414
-0.0152915
-0.0274385
-0.0322951
-0.0303269
-0.0241298
-0.0163642
-0.00788658
0.00222353
0.0147717
0.0285643
0.0402906
0.046412
0.0456726
0.0397742
0.0316203
0.0230752
0.0143094
0.00490163
0.00393214
0.0118486
0.0201924
0.0293893
0.0387721
0.0459163
0.0476749
0.0424662
0.031763
0.0190782
0.00731804
-0.00293968
-0.0129742
-0.0237184
-0.033795
-0.0397299
-0.0382094
-0.0284095
-0.0126333
0.00525409
0.0222867
0.0374053
0.0505446
0.0612425
0.0682254
0.0701108
0.0662302
0.0569679
0.0438793
0.0294793
0.016444
0.00669069
0.00105892
-0.000338356
0.00228158
0.00836052
0.0169189
0.0266789
0.0362028
0.0439515
0.0484084
0.0485001
0.0439899
0.0353892
0.0237305
0.0105519
-0.00229978
-0.0132117
-0.0211198
-0.0253096
-0.0253089
-0.0211177
-0.0132088
-0.00229628
0.0105559
0.023735
0.0353942
0.0439952
0.0485052
0.0484128
0.0439551
0.0362055
0.0266808
0.0169199
0.00836079
0.00228104
-0.000339539
0.00105736
0.00668898
0.0164423
0.0294777
0.0438781
0.056967
0.0662295
0.0701102
0.0682248
0.0612419
0.0505441
0.037405
0.0222867
0.00525454
-0.0126324
-0.0284083
-0.0382081
-0.0397286
-0.0337937
-0.0237169
-0.0129725
-0.00293829
0.00731869
0.0190777
0.0317613
0.0424639
0.0476727
0.0459146
0.0387707
0.0293879
0.0201909
0.0118474
0.00393164
0.00280112
0.00886143
0.0163028
0.0255287
0.0354449
0.0432414
0.0457295
0.0415429
0.0322813
0.0212188
0.0106787
0.000593753
-0.0106898
-0.0240217
-0.0375378
-0.0471159
-0.048905
-0.0417958
-0.0280096
-0.0114032
0.00504825
0.020254
0.0340993
0.046077
0.0548353
0.058791
0.0569679
0.0495333
0.038083
0.0253608
0.0142765
0.0068708
0.00397181
0.0055093
0.0109035
0.019215
0.0292861
0.0398862
0.0496803
0.0571682
0.060875
0.0598779
0.0541631
0.0444179
0.0317487
0.0176881
0.00403112
-0.00766131
-0.0162794
-0.0209201
-0.0209188
-0.0162759
-0.00765608
0.00403754
0.0176954
0.0317564
0.0444257
0.0541707
0.0598846
0.0608804
0.057172
0.0496828
0.0398875
0.0292865
0.0192145
0.0109023
0.00550766
0.00397003
0.00686909
0.014275
0.0253595
0.0380819
0.0495323
0.056967
0.0587902
0.0548345
0.0460762