/*--------------------------------*- C++ -*----------------------------------*\
  =========                 |
  \\      /  F ield         | OpenFOAM: The Open Source CFD Toolbox
   \\    /   O peration     | Website:  https://openfoam.org
    \\  /    A nd           | Version:  10
     \\/     M anipulation  |
\*---------------------------------------------------------------------------*/
FoamFile
{
    format      ascii;
    class       volScalarField;
    location    "85";
    object      h_0;
}
// * * * * * * * * * * * * * * * * * * * * * * * * * * * * * * * * * * * * * //

dimensions      [0 1 0 0 0 0 0];

internalField   nonuniform List<scalar> 
10000
(
-0.00237624
-0.00694856
-0.0110661
-0.0146261
-0.0175855
-0.0197803
-0.0209175
-0.0207809
-0.0194576
-0.0173767
-0.0150905
-0.0129429
-0.0108925
-0.00862889
-0.00590211
-0.00280359
0.000232661
0.00269189
0.00428998
0.00509889
0.00541562
0.00554301
0.00564299
0.00568426
0.00549069
0.00489598
0.00391246
0.00276919
0.00175651
0.00102662
0.000574375
0.000345485
0.000298929
0.000390881
0.000579411
0.000884749
0.00137737
0.00204167
0.00271263
0.00319868
0.00341026
0.00332194
0.00289768
0.00214958
0.00119785
0.00018602
-0.000791364
-0.00163824
-0.00223732
-0.00252974
-0.00252987
-0.00223769
-0.00163882
-0.000792086
0.000185258
0.00119715
0.00214902
0.00289732
0.00332181
0.00341038
0.00319905
0.0027132
0.00204235
0.0013781
0.000885448
0.000580007
0.000391309
0.000299164
0.000345535
0.000574257
0.00102636
0.00175613
0.00276874
0.00391197
0.00489545
0.00549015
0.00568375
0.00564256
0.00554265
0.00541532
0.00509864
0.00428976
0.00269172
0.000232571
-0.00280356
-0.00590196
-0.00862863
-0.0108922
-0.0129426
-0.0150903
-0.0173765
-0.0194575
-0.0207808
-0.0209174
-0.0197801
-0.0175853
-0.0146259
-0.011066
-0.00694851
-0.00237623
-0.00694856
-0.0202974
-0.032264
-0.0425419
-0.0510184
-0.0572347
-0.0603574
-0.0597755
-0.0557644
-0.0495957
-0.0429003
-0.0366952
-0.0308663
-0.0245057
-0.016874
-0.00821974
0.000222204
0.00700028
0.0113461
0.0135174
0.0144001
0.0148738
0.0153931
0.0158361
0.0156481
0.0143041
0.0118065
0.00878771
0.00605474
0.00402228
0.00266936
0.00185066
0.00146981
0.00143225
0.00165682
0.00223868
0.00340619
0.00513182
0.00695607
0.0083342
0.00899388
0.00882962
0.00771021
0.00566309
0.00303561
0.000232183
-0.00249052
-0.00486142
-0.00653853
-0.00735314
-0.00735341
-0.0065393
-0.00486264
-0.00249204
0.000230586
0.00303417
0.00566196
0.0077095
0.00882939
0.0089942
0.00833504
0.00695733
0.00513333
0.00340779
0.00224022
0.00165811
0.00143316
0.00147028
0.0018507
0.00266902
0.0040216
0.0060538
0.0087866
0.0118053
0.0143028
0.0156467
0.0158348
0.015392
0.0148729
0.0143993
0.0135168
0.0113456
0.00699989
0.000222043
-0.00821958
-0.0168735
-0.024505
-0.0308654
-0.0366943
-0.0428996
-0.0495952
-0.0557641
-0.0597753
-0.0603571
-0.0572344
-0.051018
-0.0425415
-0.0322636
-0.0202972
-0.00694852
-0.0110661
-0.032264
-0.0511097
-0.0670961
-0.0800861
-0.0894219
-0.093851
-0.0924642
-0.0857496
-0.0757704
-0.0651509
-0.0555311
-0.0467444
-0.0373508
-0.0261587
-0.0135124
-0.00127291
0.00841077
0.0144958
0.0175208
0.0189319
0.0200925
0.0216536
0.023326
0.024118
0.0230919
0.0201613
0.0162324
0.0124789
0.00948248
0.00719822
0.00543818
0.00412308
0.00320271
0.00266427
0.00275528
0.00389515
0.00608475
0.00865081
0.010764
0.0119583
0.0119778
0.0105421
0.00767271
0.00391194
-0.000135337
-0.00411077
-0.00760764
-0.0100833
-0.0112761
-0.0112762
-0.0100838
-0.00760839
-0.00411172
-0.000136325
0.00391109
0.0076721
0.0105418
0.0119778
0.0119586
0.0107648
0.00865188
0.006086
0.00389645
0.0027565
0.00266526
0.00320335
0.00412332
0.00543803
0.0071977
0.00948164
0.0124778
0.0162312
0.0201599
0.0230903
0.0241163
0.0233244
0.0216522
0.0200913
0.018931
0.01752
0.0144952
0.00841045
-0.00127287
-0.0135119
-0.0261578
-0.0373495
-0.046743
-0.0555299
-0.06515
-0.0757698
-0.0857494
-0.0924641
-0.0938508
-0.0894215
-0.0800855
-0.0670955
-0.0511092
-0.0322636
-0.011066
-0.0146261
-0.0425419
-0.0670961
-0.0875857
-0.103915
-0.115365
-0.120427
-0.118006
-0.108807
-0.0955803
-0.0817936
-0.0696127
-0.058835
-0.0475901
-0.0343095
-0.0193737
-0.00505306
0.00610046
0.0130098
0.0165793
0.0187419
0.0211889
0.0246161
0.0284703
0.0312808
0.0316681
0.0293879
0.0254903
0.0213671
0.0176809
0.0143656
0.0112543
0.00837707
0.00583848
0.00380115
0.00272747
0.00324215
0.00540135
0.0083915
0.0111619
0.0130373
0.0135413
0.0121927
0.0089857
0.0046235
-0.000141872
-0.00489808
-0.00913835
-0.012148
-0.0135869
-0.0135868
-0.0121477
-0.0091379
-0.00489754
-0.000141268
0.00462415
0.00898634
0.0121932
0.0135417
0.0130376
0.0111622
0.00839178
0.0054016
0.00324236
0.00272762
0.00380119
0.00583838
0.0083768
0.0112538
0.014365
0.01768
0.0213661
0.0254891
0.0293866
0.0316666
0.0312792
0.0284687
0.0246146
0.0211877
0.018741
0.0165787
0.0130096
0.00610056
-0.00505251
-0.0193727
-0.034308
-0.0475883
-0.0588332
-0.0696112
-0.0817926
-0.0955799
-0.108807
-0.118006
-0.120427
-0.115365
-0.103915
-0.087585
-0.0670955
-0.0425415
-0.014626
-0.0175855
-0.0510184
-0.0800861
-0.103915
-0.122531
-0.135298
-0.140615
-0.13729
-0.126201
-0.110609
-0.0946083
-0.0807514
-0.0688095
-0.0566092
-0.0423228
-0.0263443
-0.0111652
0.000516715
0.00777547
0.0119081
0.0152186
0.0195425
0.0254573
0.0320741
0.0374629
0.0398403
0.0387893
0.0354291
0.0312864
0.0270665
0.022694
0.0180681
0.0133954
0.00900447
0.00528047
0.00290523
0.00268421
0.00472273
0.0080973
0.0115653
0.0142349
0.0153836
0.0143177
0.0109947
0.0062545
0.00098024
-0.00436202
-0.00917855
-0.0126113
-0.0142491
-0.0142488
-0.0126104
-0.00917712
-0.00436025
0.00098217
0.00625639
0.0109963
0.014319
0.0153844
0.0142353
0.0115652
0.00809695
0.00472217
0.00268354
0.0029045
0.00527975
0.00900377
0.0133947
0.0180673
0.0226931
0.0270656
0.0312854
0.0354279
0.0387879
0.0398387
0.0374612
0.0320725
0.0254559
0.0195414
0.0152178
0.0119078
0.00777569
0.000517464
-0.0111639
-0.0263426
-0.0423208
-0.0566071
-0.0688075
-0.0807498
-0.0946074
-0.110609
-0.126201
-0.137291
-0.140616
-0.135298
-0.122531
-0.103915
-0.0800855
-0.051018
-0.0175854
-0.0197803
-0.0572347
-0.0894219
-0.115365
-0.135298
-0.148796
-0.154293
-0.150542
-0.138486
-0.121659
-0.104516
-0.0898338
-0.0773669
-0.0647792
-0.0501317
-0.03386
-0.018559
-0.00690099
0.000439314
0.00512444
0.00970947
0.0160264
0.024425
0.0336719
0.0414684
0.0457334
0.0459233
0.0432139
0.039244
0.0347582
0.029669
0.0239331
0.0179271
0.0121921
0.00730441
0.00411416
0.0035548
0.00574927
0.00965556
0.0138418
0.0172172
0.0188562
0.0179011
0.0142845
0.00896954
0.00298883
-0.00309078
-0.00857842
-0.0125027
-0.0143875
-0.0143872
-0.0125018
-0.00857696
-0.00308894
0.00299084
0.0089715
0.0142862
0.0179024
0.0188572
0.0172177
0.0138418
0.00965524
0.00574873
0.00355415
0.00411345
0.00730368
0.0121914
0.0179263
0.0239322
0.0296679
0.0347569
0.0392426
0.0432123
0.0459216
0.0457316
0.0414666
0.0336701
0.0244235
0.0160253
0.00970891
0.00512453
0.000440103
-0.00689955
-0.0185571
-0.0338578
-0.0501294
-0.064777
-0.077365
-0.0898324
-0.104515
-0.12166
-0.138486
-0.150544
-0.154294
-0.148796
-0.135298
-0.115365
-0.0894215
-0.0572344
-0.0197801
-0.0209175
-0.0603574
-0.093851
-0.120427
-0.140615
-0.154293
-0.160001
-0.156423
-0.144411
-0.127513
-0.11027
-0.0955354
-0.0830656
-0.0705032
-0.0559543
-0.0399625
-0.025181
-0.0141695
-0.00731384
-0.00262432
0.00263706
0.0102507
0.0203348
0.0313747
0.0408308
0.0464567
0.0476559
0.045668
0.042228
0.0381073
0.0331713
0.0273594
0.0211244
0.0151302
0.0100664
0.00688714
0.00660185
0.00931822
0.0138593
0.0186059
0.0223112
0.0239403
0.0225684
0.0181383
0.0117257
0.00454107
-0.00268014
-0.00912422
-0.0137345
-0.0159774
-0.0159773
-0.0137342
-0.00912362
-0.00267933
0.004542
0.0117266
0.0181391
0.0225692
0.0239409
0.0223117
0.0186063
0.0138595
0.00931836
0.00660192
0.00688713
0.0100663
0.0151298
0.0211237
0.0273584
0.0331699
0.0381055
0.042226
0.0456658
0.0476537
0.0464546
0.0408288
0.0313729
0.0203334
0.0102497
0.00263676
-0.00262383
-0.00731253
-0.0141675
-0.0251786
-0.0399601
-0.055952
-0.0705012
-0.0830641
-0.0955345
-0.110269
-0.127513
-0.144412
-0.156425
-0.160003
-0.154294
-0.140616
-0.120427
-0.0938508
-0.0603572
-0.0209175
-0.0207809
-0.0597755
-0.0924642
-0.118006
-0.13729
-0.150542
-0.156423
-0.153482
-0.142322
-0.126271
-0.109744
-0.0955624
-0.0835186
-0.0713663
-0.0573934
-0.0423221
-0.0288631
-0.0194363
-0.01413
-0.0106383
-0.00602383
0.00151474
0.0119666
0.0236414
0.0338682
0.0403339
0.0424384
0.0414647
0.0391907
0.0363716
0.0327705
0.0282017
0.0230499
0.0179789
0.0137243
0.0113109
0.011796
0.0152543
0.0203764
0.0253721
0.02888
0.0298448
0.0273818
0.0214936
0.0133595
0.00438205
-0.00447488
-0.0122391
-0.0177825
-0.0205186
-0.0205187
-0.0177828
-0.0122395
-0.0044753
0.00438165
0.0133592
0.0214933
0.0273817
0.0298449
0.0288804
0.0253726
0.0203771
0.015255
0.0117967
0.0113114
0.0137246
0.0179788
0.0230493
0.0282004
0.0327687
0.0363694
0.0391883
0.0414623
0.0424361
0.040332
0.0338665
0.0236401
0.0119656
0.00151425
-0.00602365
-0.0106374
-0.0141282
-0.019434
-0.0288606
-0.0423199
-0.0573916
-0.071365
-0.0835178
-0.0955622
-0.109744
-0.126272
-0.142323
-0.153484
-0.156425
-0.150544
-0.137291
-0.118006
-0.0924641
-0.0597753
-0.0207808
-0.0194576
-0.0557644
-0.0857496
-0.108807
-0.126201
-0.138486
-0.144411
-0.142322
-0.132451
-0.117759
-0.102405
-0.089131
-0.0778137
-0.066416
-0.0534909
-0.0399771
-0.0286517
-0.0218039
-0.0192365
-0.0183145
-0.0158199
-0.0097831
-0.000194459
0.011175
0.0215686
0.0286333
0.0317631
0.0322308
0.0317769
0.0310897
0.0297946
0.0274997
0.0243963
0.0210523
0.0182289
0.0170304
0.0185514
0.0228258
0.0284351
0.0334435
0.0363827
0.0362082
0.0321495
0.0243243
0.0140119
0.00279872
-0.00808877
-0.0174831
-0.0241773
-0.0275251
-0.0275252
-0.0241778
-0.0174839
-0.00808969
0.00279777
0.014011
0.0243236
0.032149
0.0362081
0.0363828
0.0334438
0.0284356
0.0228264
0.0185519
0.0170308
0.0182289
0.0210519
0.0243952
0.0274982
0.0297926
0.0310874
0.0317746
0.0322288
0.0317614
0.0286321
0.0215679
0.0111746
-0.000194519
-0.00978276
-0.015819
-0.0183129
-0.0192344
-0.0218015
-0.0286495
-0.0399754
-0.0534899
-0.0664157
-0.0778139
-0.0891316
-0.102406
-0.11776
-0.132453
-0.142323
-0.144412
-0.138486
-0.126201
-0.108807
-0.0857494
-0.0557641
-0.0194575
-0.0173767
-0.0495957
-0.0757704
-0.0955803
-0.110609
-0.121659
-0.127513
-0.126271
-0.117759
-0.104525
-0.0904363
-0.0781601
-0.0676926
-0.057242
-0.0456381
-0.0340256
-0.0252507
-0.0215088
-0.0223654
-0.0248575
-0.0254051
-0.0217294
-0.0136791
-0.00306104
0.00726638
0.0148782
0.019129
0.0212292
0.0228251
0.024523
0.0258276
0.0261304
0.0253778
0.0240093
0.0228291
0.0230407
0.0257552
0.0309503
0.0371289
0.0422346
0.044659
0.0433293
0.0376103
0.0277832
0.015231
0.00170003
-0.0113218
-0.022451
-0.0303843
-0.0343979
-0.0343979
-0.0303844
-0.0224513
-0.0113222
0.00169962
0.0152306
0.0277829
0.03761
0.0433291
0.0446589
0.0422344
0.0371287
0.0309499
0.0257547
0.02304
0.0228281
0.0240079
0.0253761
0.0261285
0.0258255
0.0245211
0.0228235
0.0212281
0.0191285
0.0148783
0.00726693
-0.00306021
-0.0136781
-0.0217282
-0.0254034
-0.0248554
-0.0223631
-0.0215066
-0.0252489
-0.0340245
-0.0456378
-0.0572425
-0.0676935
-0.0781614
-0.0904376
-0.104526
-0.11776
-0.126272
-0.127513
-0.12166
-0.110609
-0.0955799
-0.0757698
-0.0495952
-0.0173765
-0.0150905
-0.0429003
-0.0651509
-0.0817936
-0.0946083
-0.104516
-0.11027
-0.109744
-0.102405
-0.0904363
-0.077455
-0.0660706
-0.0563931
-0.046842
-0.0364708
-0.0265867
-0.0201081
-0.0192064
-0.0233106
-0.0291905
-0.032882
-0.0317243
-0.0253684
-0.0156537
-0.0055719
0.00234785
0.00740475
0.0107411
0.0139177
0.0174987
0.0209372
0.0234664
0.0248143
0.0253056
0.0258013
0.0275884
0.0317405
0.0381469
0.0452596
0.0509264
0.0533527
0.0513596
0.0444256
0.0330228
0.018647
0.00317444
-0.0116777
-0.024325
-0.0333683
-0.037992
-0.0379918
-0.0333679
-0.0243245
-0.0116771
0.00317518
0.0186477
0.0330234
0.044426
0.0513597
0.0533524
0.0509257
0.0452584
0.0381455
0.0317388
0.0275863
0.0257991
0.0253032
0.0248118
0.023464
0.0209351
0.0174972
0.0139169
0.010741
0.00740537
0.00234908
-0.00557027
-0.0156519
-0.0253666
-0.0317223
-0.0328798
-0.0291882
-0.0233083
-0.0192044
-0.0201067
-0.0265862
-0.0364711
-0.046843
-0.0563946
-0.0660722
-0.0774566
-0.0904376
-0.102406
-0.109744
-0.110269
-0.104515
-0.0946074
-0.0817926
-0.06515
-0.0428996
-0.0150903
-0.0129429
-0.0366952
-0.0555311
-0.0696127
-0.0807514
-0.0898338
-0.0955354
-0.0955624
-0.089131
-0.0781601
-0.0660706
-0.0554128
-0.0463562
-0.0374436
-0.027869
-0.019057
-0.0140191
-0.0150063
-0.0214667
-0.0300356
-0.0364264
-0.0376031
-0.0330126
-0.0245217
-0.0152446
-0.00778788
-0.00286434
0.000659074
0.00432788
0.00874297
0.013393
0.0174405
0.020457
0.0226715
0.0249728
0.028659
0.034679
0.0427845
0.0513938
0.0582902
0.0614727
0.0595967
0.0522157
0.0399938
0.0245429
0.00784372
-0.00820537
-0.0218694
-0.0316874
-0.0367579
-0.0367576
-0.0316865
-0.0218682
-0.00820387
0.0078454
0.0245446
0.0399953
0.0522168
0.0595972
0.0614724
0.0582892
0.0513922
0.0427824
0.0346763
0.028656
0.0249696
0.0226683
0.0204541
0.017438
0.0133912
0.00874192
0.00432773
0.00065975
-0.00286298
-0.00778602
-0.0152424
-0.0245195
-0.0330105
-0.037601
-0.0364243
-0.0300334
-0.0214647
-0.0150048
-0.0140183
-0.019057
-0.0278697
-0.0374448
-0.0463579
-0.0554145
-0.0660722
-0.0781614
-0.0891315
-0.0955622
-0.0955344
-0.0898324
-0.0807498
-0.0696112
-0.0555298
-0.0366943
-0.0129426
-0.0108925
-0.0308663
-0.0467444
-0.058835
-0.0688095
-0.0773669
-0.0830656
-0.0835186
-0.0778137
-0.0676926
-0.0563931
-0.0463562
-0.0377235
-0.0290699
-0.0196666
-0.0110424
-0.00635055
-0.00803908
-0.0157475
-0.0261524
-0.0347695
-0.0382463
-0.0358279
-0.0293635
-0.0220046
-0.0163284
-0.0129568
-0.0106748
-0.00786969
-0.0038304
0.00104285
0.00592044
0.0102742
0.014236
0.0186539
0.0247279
0.0331781
0.0435589
0.0542512
0.0630049
0.0676351
0.0666229
0.0595663
0.047295
0.0315239
0.0143255
-0.0022533
-0.0163806
-0.026585
-0.0319058
-0.0319055
-0.0265841
-0.0163793
-0.00225161
0.0143274
0.0315258
0.0472966
0.0595675
0.0666235
0.0676348
0.0630039
0.0542494
0.0435566
0.0331752
0.0247246
0.0186506
0.0142329
0.0102715
0.00591833
0.00104146
-0.00383093
-0.00786935
-0.0106737
-0.0129552
-0.0163265
-0.0220026
-0.0293616
-0.0358261
-0.0382446
-0.0347677
-0.0261508
-0.0157462
-0.00803834
-0.00635043
-0.0110429
-0.0196676
-0.0290713
-0.0377251
-0.0463578
-0.0563946
-0.0676935
-0.0778139
-0.0835178
-0.0830641
-0.0773649
-0.0688075
-0.0588332
-0.046743
-0.0308654
-0.0108922
-0.00862889
-0.0245057
-0.0373508
-0.0475901
-0.0566092
-0.0647792
-0.0705032
-0.0713663
-0.066416
-0.057242
-0.046842
-0.0374436
-0.0290699
-0.0202802
-0.0104219
-0.00116495
0.00413414
0.00273915
-0.00531423
-0.0169084
-0.0275109
-0.0335351
-0.0340132
-0.0306871
-0.0266039
-0.0241602
-0.0237712
-0.0240758
-0.0233577
-0.0207586
-0.0165107
-0.0113695
-0.00592107
-0.00014173
0.00670866
0.0156359
0.027042
0.0402168
0.0534682
0.0645209
0.0710484
0.0713911
0.0651772
0.053354
0.0377086
0.0204085
0.003659
-0.0106214
-0.0209797
-0.0264257
-0.0264255
-0.0209791
-0.0106205
0.00366024
0.0204099
0.0377099
0.053355
0.0651779
0.0713912
0.0710478
0.0645197
0.0534665
0.0402146
0.0270394
0.0156331
0.00670595
-0.000144075
-0.0059229
-0.0113707
-0.0165112
-0.0207584
-0.0233568
-0.0240745
-0.0237697
-0.0241587
-0.0266024
-0.0306859
-0.0340121
-0.0335339
-0.0275099
-0.0169076
-0.00531383
0.00273901
0.00413346
-0.00116601
-0.0104232
-0.0202816
-0.0290713
-0.0374448
-0.046843
-0.0572424
-0.0664156
-0.071365
-0.0705012
-0.064777
-0.0566071
-0.0475883
-0.0373495
-0.0245049
-0.00862862
-0.00590211
-0.016874
-0.0261587
-0.0343095
-0.0423228
-0.0501317
-0.0559543
-0.0573934
-0.0534909
-0.0456381
-0.0364708
-0.027869
-0.0196666
-0.0104219
0.000376433
0.0108522
0.0174073
0.0169945
0.00926886
-0.00297754
-0.0153134
-0.0240172
-0.0279039
-0.0285118
-0.028646
-0.030393
-0.0338912
-0.0376364
-0.0398392
-0.0394907
-0.0365981
-0.0317692
-0.0256007
-0.0181672
-0.00885587
0.00310694
0.0177559
0.0340511
0.050157
0.0637385
0.0723525
0.0742424
0.0690635
0.0578281
0.0423555
0.0249197
0.0079327
-0.00655221
-0.0170811
-0.0226489
-0.0226488
-0.017081
-0.00655189
0.00793316
0.0249202
0.0423558
0.0578279
0.0690629
0.0742415
0.0723512
0.0637368
0.0501551
0.0340489
0.0177536
0.00310478
-0.0088576
-0.0181683
-0.0256013
-0.0317692
-0.0365976
-0.0394897
-0.0398379
-0.037635
-0.0338898
-0.0303919
-0.0286451
-0.0285111
-0.0279033
-0.0240167
-0.015313
-0.00297745
0.00926846
0.0169935
0.0174059
0.0108506
0.000374932
-0.0104232
-0.0196676
-0.0278697
-0.0364711
-0.0456378
-0.0534898
-0.0573915
-0.055952
-0.0501294
-0.0423208
-0.034308
-0.0261577
-0.0168735
-0.00590195
-0.00280359
-0.00821974
-0.0135124
-0.0193737
-0.0263443
-0.03386
-0.0399625
-0.0423221
-0.0399771
-0.0340256
-0.0265867
-0.019057
-0.0110424
-0.00116495
0.0108522
0.0228818
0.0311138
0.0322533
0.0255929
0.0135175
0.000203362
-0.0106291
-0.0176172
-0.0220426
-0.0263832
-0.0323563
-0.039827
-0.0472154
-0.0527298
-0.0552185
-0.0543927
-0.0506151
-0.04442
-0.0359306
-0.02462
-0.00991552
0.00785261
0.0272698
0.0462742
0.0624046
0.0730935
0.076513
0.0723457
0.0616299
0.0461803
0.0283769
0.0108803
-0.00405276
-0.0149127
-0.0206719
-0.020672
-0.0149129
-0.00405305
0.01088
0.0283764
0.0461793
0.0616285
0.0723439
0.076511
0.0730912
0.0624022
0.0462718
0.0272674
0.00785054
-0.00991703
-0.0246207
-0.0359306
-0.0444193
-0.0506139
-0.0543911
-0.0552166
-0.0527279
-0.0472138
-0.0398258
-0.0323554
-0.0263826
-0.0220422
-0.0176169
-0.0106289
0.000203355
0.0135172
0.025592
0.0322518
0.031112
0.0228799
0.0108506
-0.00116599
-0.0110429
-0.0190569
-0.0265862
-0.0340245
-0.0399753
-0.0423198
-0.0399601
-0.0338578
-0.0263426
-0.0193727
-0.0135119
-0.00821957
-0.00280355
0.000232661
0.000222204
-0.00127291
-0.00505306
-0.0111652
-0.018559
-0.025181
-0.0288631
-0.0286517
-0.0252507
-0.0201081
-0.0140191
-0.00635055
0.00413414
0.0174073
0.0311138
0.0413489
0.0447055
0.0401691
0.0296395
0.016856
0.00534792
-0.00344709
-0.0105588
-0.018114
-0.0274698
-0.0382791
-0.0489753
-0.0578341
-0.0635635
-0.0655057
-0.0636711
-0.0584379
-0.0499021
-0.0375457
-0.0209206
-0.000666564
0.0214304
0.0430334
0.0614973
0.0741035
0.0789506
0.07574
0.0655182
0.0500722
0.0318567
0.0137602
-0.00173448
-0.0130125
-0.0190017
-0.0190019
-0.013013
-0.00173528
0.013759
0.0318552
0.0500701
0.0655156
0.0757371
0.0789474
0.0741003
0.0614941
0.0430305
0.0214279
-0.000668409
-0.0209215
-0.0375457
-0.0499012
-0.0584364
-0.063669
-0.0655034
-0.0635611
-0.057832
-0.0489736
-0.0382778
-0.0274689
-0.0181134
-0.0105584
-0.00344685
0.00534802
0.0168559
0.029639
0.0401681
0.0447039
0.041347
0.031112
0.017406
0.0041335
-0.00635039
-0.0140182
-0.0201067
-0.0252489
-0.0286495
-0.0288606
-0.0251786
-0.0185571
-0.0111639
-0.0050525
-0.00127287
0.000222048
0.000232577
0.00269189
0.00700028
0.00841077
0.00610046
0.000516715
-0.00690099
-0.0141695
-0.0194363
-0.0218039
-0.0215088
-0.0192064
-0.0150063
-0.00803908
0.00273915
0.0169945
0.0322533
0.0447055
0.0510019
0.0498727
0.04263
0.0323652
0.0221899
0.0134722
0.00538939
-0.00385046
-0.015292
-0.0284502
-0.0418372
-0.0538312
-0.0630009
-0.0682793
-0.0692477
-0.0660433
-0.058661
-0.0465209
-0.029211
-0.00758192
0.0162828
0.0397935
0.0601126
0.0743533
0.0805135
0.078288
0.0687275
0.0535853
0.0353275
0.0169633
0.00113757
-0.0104223
-0.0165751
-0.0165753
-0.0104231
0.00113628
0.0169614
0.0353249
0.0535823
0.068724
0.0782842
0.0805096
0.0743495
0.060109
0.0397904
0.0162804
-0.00758339
-0.0292115
-0.0465203
-0.0586596
-0.0660413
-0.0692454
-0.0682768
-0.0629985
-0.0538292
-0.0418357
-0.028449
-0.0152911
-0.00384974
0.00538992
0.0134725
0.02219
0.0323651
0.0426295
0.0498718
0.0510006
0.0447039
0.0322518
0.0169936
0.00273905
-0.0080383
-0.0150048
-0.0192044
-0.0215066
-0.0218015
-0.019434
-0.0141675
-0.00689954
0.000517472
0.00610056
0.00841045
0.00699989
0.00269172
0.00428998
0.0113461
0.0144958
0.0130098
0.00777547
0.000439314
-0.00731384
-0.01413
-0.0192365
-0.0223654
-0.0233106
-0.0214667
-0.0157475
-0.00531423
0.00926886
0.0255929
0.0401691
0.0498727
0.0532045
0.0507705
0.0448101
0.0378135
0.0309481
0.0235438
0.0141078
0.00185026
-0.0126632
-0.0280466
-0.0427808
-0.0553106
-0.0641816
-0.0685326
-0.0682109
-0.0630639
-0.052411
-0.0358066
-0.0141885
0.0101972
0.0346058
0.0560624
0.0715261
0.0788611
0.0777101
0.0691204
0.0548154
0.0371956
0.0192313
0.0035948
-0.00791172
-0.0140649
-0.0140652
-0.00791275
0.00359296
0.0192286
0.0371922
0.0548114
0.0691162
0.0777057
0.0788568
0.071522
0.0560588
0.034603
0.0101953
-0.0141893
-0.0358064
-0.0524099
-0.0630622
-0.0682088
-0.0685304
-0.0641795
-0.0553088
-0.0427793
-0.0280455
-0.0126623
0.00185107
0.0141085
0.0235444
0.0309484
0.0378137
0.0448101
0.0507702
0.0532038
0.0498718
0.0401681
0.025592
0.00926849
-0.00531379
-0.0157462
-0.0214647
-0.0233083
-0.0223631
-0.0192344
-0.0141282
-0.00731252
0.000440108
0.00777569
0.0130096
0.0144952
0.0113456
0.00428977
0.00509889
0.0135174
0.0175208
0.0165793
0.0119081
0.00512444
-0.00262432
-0.0106383
-0.0183145
-0.0248575
-0.0291905
-0.0300356
-0.0261524
-0.0169084
-0.00297754
0.0135175
0.0296395
0.04263
0.0507705
0.0538619
0.0531538
0.0503996
0.0464966
0.0408877
0.0323338
0.0202404
0.00521168
-0.0114662
-0.0283629
-0.0438332
-0.0561133
-0.0639533
-0.0669115
-0.0646778
-0.0564739
-0.0417869
-0.0215257
0.00206166
0.0262154
0.0479253
0.0640524
0.0723154
0.0722509
0.0648756
0.0518808
0.0355419
0.018647
0.00375815
-0.0073114
-0.0132704
-0.0132709
-0.00731287
0.00375562
0.0186434
0.0355375
0.051876
0.0648708
0.0722462
0.072311
0.0640484
0.0479221
0.0262132
0.00206066
-0.0215256
-0.041786
-0.0564723
-0.0646759
-0.0669096
-0.0639515
-0.0561118
-0.0438322
-0.0283622
-0.0114658
0.00521215
0.0202409
0.0323343
0.040888
0.0464967
0.0503996
0.0531537
0.0538617
0.0507702
0.0426295
0.029639
0.0135172
-0.00297743
-0.0169075
-0.0261508
-0.0300334
-0.0291882
-0.0248554
-0.0183129
-0.0106374
-0.00262384
0.00512452
0.0119078
0.0165787
0.01752
0.0135168
0.00509864
0.00541562
0.0144001
0.0189319
0.0187419
0.0152186
0.00970947
0.00263706
-0.00602383
-0.0158199
-0.0254051
-0.032882
-0.0364264
-0.0347695
-0.0275109
-0.0153134
0.000203362
0.016856
0.0323652
0.0448101
0.0531538
0.0576288
0.0592511
0.0586494
0.055353
0.0483173
0.0370725
0.0222174
0.00494199
-0.0133945
-0.0310911
-0.0461736
-0.0571015
-0.0631893
-0.0639934
-0.0586756
-0.0466641
-0.0287637
-0.00709231
0.0157049
0.0366987
0.0527516
0.0614758
0.0622675
0.0560641
0.0445037
0.0297118
0.0142304
0.000432341
-0.0099223
-0.0155283
-0.015529
-0.00992432
0.000429063
0.014226
0.0297067
0.0444983
0.0560588
0.0622626
0.0614715
0.0527481
0.0366963
0.0157037
-0.00709228
-0.0287626
-0.0466624
-0.0586736
-0.0639914
-0.0631876
-0.0571002
-0.0461728
-0.0310909
-0.0133946
0.00494185
0.0222174
0.0370727
0.0483174
0.0553529
0.0586492
0.0592508
0.0576286
0.0531537
0.0448101
0.0323651
0.0168559
0.000203363
-0.015313
-0.0275098
-0.0347677
-0.0364243
-0.0328798
-0.0254035
-0.015819
-0.00602366
0.00263674
0.00970889
0.0152178
0.018741
0.018931
0.0143993
0.00541532
0.00554301
0.0148738
0.0200925
0.0211889
0.0195425
0.0160264
0.0102507
0.00151474
-0.0097831
-0.0217294
-0.0317243
-0.0376031
-0.0382463
-0.0335351
-0.0240172
-0.0106291
0.00534792
0.0221899
0.0378135
0.0503996
0.0592511
0.0647391
0.0672682
0.0664258
0.0612814
0.0513987
0.0373114
0.0201094
0.00110777
-0.0179438
-0.03494
-0.0481582
-0.0567435
-0.0601658
-0.0575862
-0.0484221
-0.033362
-0.0143302
0.00622314
0.0255515
0.04065
0.0491282
0.0502526
0.0448254
0.0343906
0.0209323
0.00677405
-0.00590048
-0.015435
-0.020599
-0.0205999
-0.0154375
-0.00590434
0.0067692
0.0209269
0.034385
0.04482
0.0502478
0.0491243
0.0406473
0.0255501
0.00622311
-0.0143291
-0.0333602
-0.0484199
-0.0575839
-0.0601638
-0.0567421
-0.0481575
-0.0349398
-0.0179442
0.00110721
0.0201089
0.0373111
0.0513985
0.0612811
0.0664253
0.0672676
0.0647386
0.0592508
0.0503996
0.0378137
0.02219
0.00534802
-0.0106289
-0.0240166
-0.0335339
-0.0382446
-0.037601
-0.0317223
-0.0217282
-0.00978278
0.00151423
0.0102497
0.0160252
0.0195414
0.0211877
0.0200913
0.0148729
0.00554265
0.00564299
0.0153931
0.0216536
0.0246161
0.0254573
0.024425
0.0203348
0.0119666
-0.000194459
-0.0136791
-0.0253684
-0.0330126
-0.0358279
-0.0340132
-0.0279039
-0.0176172
-0.00344709
0.0134722
0.0309481
0.0464966
0.0586494
0.0672682
0.0725899
0.074228
0.0712727
0.0632119
0.050439
0.0339349
0.015013
-0.00449683
-0.022396
-0.0368725
-0.0469853
-0.052179
-0.0516848
-0.0449865
-0.0327023
-0.0165672
0.00119022
0.0180787
0.0313613
0.0387871
0.039553
0.0342898
0.0244021
0.0117572
-0.00146082
-0.0132084
-0.0219679
-0.0266751
-0.0266761
-0.0219706
-0.0132124
-0.00146556
0.0117521
0.024397
0.034285
0.0395489
0.0387842
0.0313597
0.0180786
0.00119125
-0.0165654
-0.0327001
-0.044984
-0.0516825
-0.0521773
-0.0469842
-0.0368722
-0.0223963
-0.00449754
0.0150121
0.0339342
0.0504385
0.0632114
0.0712721
0.0742273
0.0725892
0.0672676
0.0586492
0.0464967
0.0309484
0.0134725
-0.00344684
-0.0176169
-0.0279033
-0.0340121
-0.0358261
-0.0330105
-0.0253666
-0.0136781
-0.000194529
0.0119656
0.0203334
0.0244235
0.0254559
0.0246146
0.0216521
0.015392
0.00564256
0.00568426
0.0158361
0.023326
0.0284703
0.0320741
0.0336719
0.0313747
0.0236414
0.011175
-0.00306104
-0.0156537
-0.0245217
-0.0293635
-0.0306871
-0.0285118
-0.0220426
-0.0105588
0.00538939
0.0235438
0.0408877
0.055353
0.0664258
0.074228
0.0783718
0.0778858
0.0720798
0.0611321
0.0459041
0.027755
0.00864658
-0.00913486
-0.0237503
-0.0342458
-0.0401055
-0.0407051
-0.0356848
-0.0256687
-0.0122413
0.00258743
0.0166178
0.027476
0.0331821
0.0329548
0.0272638
0.0173511
0.00498812
-0.00771464
-0.0188116
-0.0269405
-0.0312481
-0.031249
-0.0269428
-0.0188149
-0.00771846
0.00498415
0.0173472
0.0272604
0.0329522
0.0331806
0.0274758
0.0166189
0.00258932
-0.012239
-0.0256663
-0.0356825
-0.0407032
-0.0401042
-0.0342452
-0.0237504
-0.00913562
0.00864554
0.027754
0.0459033
0.0611315
0.0720792
0.0778852
0.0783711
0.0742273
0.0664253
0.0553529
0.040888
0.0235444
0.00538993
-0.0105584
-0.0220421
-0.0285111
-0.0306859
-0.0293616
-0.0245195
-0.0156519
-0.0030602
0.0111746
0.0236401
0.0313729
0.0336701
0.0320725
0.0284687
0.0233244
0.0158348
0.00568375
0.00549069
0.0156481
0.024118
0.0312808
0.0374629
0.0414684
0.0408308
0.0338682
0.0215686
0.00726638
-0.0055719
-0.0152446
-0.0220046
-0.0266039
-0.028646
-0.0263832
-0.018114
-0.00385046
0.0141078
0.0323338
0.0483173
0.0612814
0.0712727
0.0778858
0.0800403
0.0768064
0.0680969
0.0546426
0.0378793
0.0199384
0.00320397
-0.0104853
-0.0202103
-0.0255517
-0.0261042
-0.0217505
-0.013193
-0.00190149
0.010322
0.0215645
0.0298328
0.0334871
0.0318664
0.0253484
0.0150345
0.00260708
-0.0098869
-0.0205984
-0.0283152
-0.0323558
-0.0323563
-0.0283164
-0.0206003
-0.00988895
0.00260509
0.0150328
0.0253473
0.031866
0.0334876
0.0298342
0.0215667
0.0103245
-0.00189904
-0.0131908
-0.0217486
-0.0261029
-0.0255511
-0.0202105
-0.0104861
0.00320277
0.0199371
0.0378781
0.0546417
0.0680963
0.0768058
0.0800397
0.0778852
0.0712721
0.0612811
0.0483174
0.0323343
0.0141085
-0.00384972
-0.0181134
-0.0263826
-0.028645
-0.0266024
-0.0220026
-0.0152424
-0.00557025
0.00726694
0.0215679
0.0338665
0.0408288
0.0414666
0.0374612
0.0312792
0.0241163
0.0156467
0.00549015
0.00489598
0.0143041
0.0230919
0.0316681
0.0398403
0.0457334
0.0464567
0.0403339
0.0286333
0.0148782
0.00234785
-0.00778788
-0.0163284
-0.0241602
-0.030393
-0.0323563
-0.0274698
-0.015292
0.00185026
0.0202404
0.0370725
0.0513987
0.0632119
0.0720798
0.0768064
0.0762151
0.0699348
0.0585501
0.043577
0.0273354
0.01233
0.000411139
-0.00755317
-0.011288
-0.0106775
-0.00591924
0.00215745
0.0121811
0.0225448
0.0315696
0.0375702
0.0392336
0.036099
0.0285652
0.0176602
0.00498136
-0.00752074
-0.0181208
-0.0257214
-0.0296992
-0.0296991
-0.0257212
-0.0181205
-0.00752025
0.00498211
0.0176614
0.028567
0.0361014
0.0392364
0.0375732
0.0315726
0.0225476
0.0121834
0.00215922
-0.00591813
-0.0106771
-0.0112884
-0.00755409
0.000409809
0.0123285
0.0273338
0.0435757
0.0585492
0.0699341
0.0762145
0.0768058
0.0720792
0.0632114
0.0513985
0.0370727
0.0202409
0.00185108
-0.0152911
-0.0274688
-0.0323553
-0.0303918
-0.0241586
-0.0163265
-0.00778601
0.00234909
0.0148783
0.0286321
0.0403319
0.0464545
0.0457316
0.0398387
0.0316666
0.0230904
0.0143028
0.00489545
0.00391246
0.0118065
0.0201613
0.0293879
0.0387893
0.0459233
0.0476559
0.0424384
0.0317631
0.019129
0.00740475
-0.00286434
-0.0129568
-0.0237712
-0.0338912
-0.039827
-0.0382791
-0.0284502
-0.0126632
0.00521168
0.0222174
0.0373114
0.050439
0.0611321
0.0680969
0.0699348
0.0659845
0.0566577
0.0435352
0.0291428
0.0161548
0.00648047
0.000947016
-0.000348985
0.00236397
0.00852466
0.0171494
0.0269526
0.0364919
0.0442303
0.0486568
0.0487072
0.0441612
0.0355477
0.0239057
0.0107692
-0.00202504
-0.0128783
-0.0207413
-0.024908
-0.0249073
-0.0207393
-0.0128754
-0.00202159
0.0107731
0.0239102
0.0355527
0.0441665
0.0487122
0.0486612
0.0442339
0.0364946
0.0269545
0.0171505
0.00852497
0.00236347
-0.000350135
0.000945481
0.00647878
0.0161531
0.0291413
0.043534
0.0566567
0.0659837
0.0699341
0.0680963
0.0611315
0.0504385
0.0373111
0.0222174
0.00521215
-0.0126623
-0.028449
-0.0382778
-0.0398258
-0.0338898
-0.0237697
-0.0129552
-0.00286298
0.00740538
0.0191285
0.0317614
0.0424361
0.0476537
0.0459216
0.0387879
0.0293866
0.0201599
0.0118053
0.00391197
0.00276919
0.00878771
0.0162324
0.0254903
0.0354291
0.0432139
0.045668
0.0414647
0.0322308
0.0212292
0.0107411
0.000659074
-0.0106748
-0.0240758
-0.0376364
-0.0472154
-0.0489753
-0.0418372
-0.0280466
-0.0114662
0.00494199
0.0201094
0.0339349
0.0459041
0.0546426
0.0585501
0.0566577
0.0491594
0.0376756
0.0249616
0.0139258
0.00659954
0.0037954
0.00542569
0.0109016
0.0192827
0.0294083
0.0400423
0.0498497
0.0573347
0.0610263
0.0600088
0.0542857
0.0445613
0.0319457
0.0179641
0.00440025
-0.00720166
-0.0157514
-0.0203574
-0.0203562
-0.015748
-0.00719647
0.00440663
0.0179713
0.0319534
0.0445692
0.0542933
0.0600155
0.0610317
0.0573386
0.0498522
0.0400436
0.0294087
0.0192823
0.0109004
0.00542408
0.00379364
0.00659784
0.0139242
0.0249603
0.0376745
0.0491584
0.0566567
0.0585492
0.0546417
0.0459033
0.0339342
0.0201089