/*--------------------------------*- C++ -*----------------------------------*\
  =========                 |
  \\      /  F ield         | OpenFOAM: The Open Source CFD Toolbox
   \\    /   O peration     | Website:  https://openfoam.org
    \\  /    A nd           | Version:  10
     \\/     M anipulation  |
\*---------------------------------------------------------------------------*/
FoamFile
{
    format      ascii;
    class       volScalarField;
    location    "30";
    object      h_0;
}
// * * * * * * * * * * * * * * * * * * * * * * * * * * * * * * * * * * * * * //

dimensions      [0 1 0 0 0 0 0];

internalField   nonuniform List<scalar> 
10000
(
-0.000397822
-0.000474418
-0.000120987
-0.000359267
-7.99714e-05
0.00089885
0.000693296
-0.000438701
-0.000810503
-0.000237079
0.000313322
-0.000446401
-0.00119675
0.00021206
0.00127371
4.72185e-05
-0.000855729
-0.000167194
0.000618882
0.000334003
-0.000279769
-0.000231863
-0.000537203
-0.00199253
-0.00305661
-0.00210839
3.42126e-05
0.00149199
0.00088411
-0.0014489
-0.00414498
-0.0060446
-0.00566566
-0.0029808
0.00121791
0.00502458
0.0072253
0.00812205
0.00872313
0.0101076
0.0117254
0.0125723
0.011233
0.00759888
0.00224327
-0.00342322
-0.0083423
-0.0118321
-0.013908
-0.0148145
-0.0148145
-0.013908
-0.0118321
-0.00834224
-0.00342316
0.00224334
0.00759895
0.011233
0.0125724
0.0117255
0.0101078
0.00872341
0.00812249
0.00722584
0.00502515
0.00121836
-0.00298054
-0.00566552
-0.00604455
-0.00414483
-0.00144868
0.000884402
0.00149213
3.39261e-05
-0.00210908
-0.00305741
-0.00199295
-0.000537171
-0.000231764
-0.000279652
0.000334314
0.000619184
-0.000167213
-0.000856042
4.72924e-05
0.00127441
0.000212179
-0.00119733
-0.000446464
0.000313597
-0.00023725
-0.000811054
-0.000438999
0.000693861
0.000899591
-8.00191e-05
-0.000359537
-0.000121067
-0.000474814
-0.000398158
-0.000474418
-0.000200588
0.000438581
-0.000541828
-0.000664856
0.000845174
0.00061749
-0.00106581
-0.00125939
0.000313539
0.00135291
-0.000721215
-0.00261644
6.77176e-05
0.00213027
-0.000534527
-0.00271734
-0.00124869
0.000627838
2.62182e-05
-0.0010128
-0.000297034
-0.000385918
-0.00315817
-0.00507724
-0.00246771
0.00261662
0.00527372
0.00204526
-0.00602769
-0.0154332
-0.0223212
-0.0225604
-0.0155026
-0.00344186
0.00814682
0.0157658
0.0197211
0.0230033
0.0282017
0.0341133
0.0375578
0.0347508
0.0250969
0.0103513
-0.0055715
-0.0195113
-0.029489
-0.0354509
-0.0380681
-0.0380681
-0.0354507
-0.0294887
-0.019511
-0.00557112
0.0103517
0.0250973
0.0347512
0.037558
0.0341134
0.0282017
0.0230033
0.0197213
0.015766
0.00814687
-0.00344228
-0.0155036
-0.0225617
-0.0223224
-0.0154336
-0.00602727
0.00204643
0.00527503
0.00261716
-0.0024682
-0.00507819
-0.0031585
-0.000385508
-0.000296779
-0.00101285
2.64904e-05
0.000628222
-0.001249
-0.00271823
-0.000534476
0.00213156
6.78203e-05
-0.00261776
-0.000721328
0.00135396
0.000313858
-0.00126017
-0.00106651
0.000618111
0.000845969
-0.000665336
-0.000542225
0.000439
-0.00020071
-0.000474806
-0.000120987
0.000438581
0.000926164
-0.000201121
-0.00107492
-0.00057411
-0.000230725
-0.000516384
-0.000491965
0.000457696
0.000911409
-0.000914551
-0.00222086
-0.000287289
0.00113345
-0.00101328
-0.0031917
-0.00197025
-6.48886e-05
-0.000640023
-0.00155052
-0.000895018
-0.00111714
-0.00376718
-0.00523273
-0.00192083
0.00398798
0.00647066
0.00128261
-0.0106062
-0.0251472
-0.0359834
-0.0372186
-0.0266808
-0.00795615
0.0109376
0.0244354
0.0320597
0.0383385
0.0464699
0.0555231
0.0603398
0.05586
0.0405944
0.0174785
-0.00786663
-0.0302578
-0.0466265
-0.0565671
-0.0610312
-0.0610311
-0.0565669
-0.0466261
-0.0302573
-0.00786604
0.0174791
0.0405952
0.0558608
0.0603403
0.0555234
0.0464699
0.0383383
0.0320596
0.0244354
0.0109372
-0.00795735
-0.026683
-0.0372213
-0.0359856
-0.0251482
-0.0106057
0.00128433
0.00647279
0.00398933
-0.0019208
-0.00523339
-0.00376743
-0.00111668
-0.00089467
-0.00155062
-0.000639976
-6.46369e-05
-0.00197067
-0.00319257
-0.00101325
0.00113439
-0.000287142
-0.00222184
-0.000914896
0.000912196
0.000458322
-0.000492032
-0.000516567
-0.000230665
-0.000574365
-0.00107567
-0.000201201
0.000926985
0.000439006
-0.000121063
-0.000359267
-0.000541828
-0.000201121
8.62512e-05
2.86591e-05
-0.000462052
-0.000362266
0.000130049
-0.000373273
-0.0010586
-0.00116661
-0.00107767
-0.000659718
-0.000331503
-0.000375325
-0.00101745
-0.00193343
-0.00144821
-0.000377342
-0.000690297
-0.00183967
-0.00280513
-0.00407361
-0.00596695
-0.00651905
-0.00381978
0.000938009
0.00292297
-0.0017943
-0.0136423
-0.0293571
-0.0414809
-0.0429412
-0.029806
-0.0062691
0.0187648
0.0377101
0.0490879
0.0574355
0.0663382
0.0754942
0.0790192
0.0714556
0.0504855
0.0197746
-0.0142095
-0.0446228
-0.0675031
-0.0817599
-0.0883671
-0.0883671
-0.0817598
-0.0675029
-0.0446225
-0.0142091
0.0197752
0.0504862
0.0714566
0.0790201
0.0754948
0.0663387
0.0574359
0.0490885
0.0377109
0.0187653
-0.00626954
-0.0298077
-0.0429435
-0.0414827
-0.0293578
-0.0136415
-0.00179259
0.0029247
0.000938898
-0.00382017
-0.00652018
-0.00596793
-0.00407392
-0.00280494
-0.00183938
-0.000689923
-0.000376935
-0.0014482
-0.00193372
-0.00101752
-0.000375089
-0.000331065
-0.000659547
-0.001078
-0.00116702
-0.00105883
-0.000373115
0.000130387
-0.000362343
-0.000462196
2.88793e-05
8.64783e-05
-0.000201201
-0.000542224
-0.00035954
-7.99714e-05
-0.000664856
-0.00107492
2.86591e-05
0.000891268
-0.000293396
-0.00106708
-0.000323277
-0.000282916
-0.00125852
-0.00168048
-0.000525732
0.000439033
-0.00109917
-0.00260797
-0.00190595
-0.00121219
-0.00146205
-0.00149229
-0.00148467
-0.00263282
-0.00432281
-0.00493583
-0.00428741
-0.00346768
-0.00280542
-0.00188778
-0.0025965
-0.00777437
-0.0195186
-0.0355106
-0.0486445
-0.0508298
-0.0369878
-0.0105644
0.0199946
0.0454735
0.0629475
0.0749258
0.0851531
0.0936934
0.0957106
0.0857686
0.0613105
0.0257304
-0.0142618
-0.0509669
-0.0794985
-0.0978894
-0.106675
-0.106675
-0.0978893
-0.0794983
-0.0509666
-0.0142614
0.0257311
0.0613115
0.0857699
0.0957119
0.0936945
0.0851538
0.0749262
0.0629479
0.045474
0.0199945
-0.0105656
-0.0369904
-0.0508331
-0.0486472
-0.0355118
-0.0195181
-0.0077729
-0.00259494
-0.00188658
-0.0028048
-0.00346761
-0.00428783
-0.00493639
-0.004323
-0.00263257
-0.00148433
-0.00149207
-0.0014618
-0.00121199
-0.00190638
-0.00260872
-0.00109891
0.000439984
-0.000525605
-0.00168109
-0.00125881
-0.000282591
-0.000323218
-0.00106769
-0.000293285
0.000892307
2.8879e-05
-0.00107567
-0.000665338
-8.00233e-05
0.00089885
0.000845174
-0.00057411
-0.000462052
-0.000293396
-0.00117878
-0.00108696
-9.27043e-05
0.000141157
-0.000894052
-0.00184593
-0.000627973
0.000319269
-0.00197676
-0.00378732
-0.00229614
-0.000794901
-0.00156933
-0.00268859
-0.00310853
-0.0042904
-0.00565123
-0.00467601
-0.0016827
-0.000547009
-0.0028061
-0.00636364
-0.00998676
-0.015395
-0.0257219
-0.0396635
-0.0515941
-0.0534596
-0.0400217
-0.0126763
0.021609
0.0532713
0.0771802
0.0927587
0.1031
0.108858
0.107567
0.0945684
0.0676089
0.0289355
-0.0150951
-0.0568602
-0.0905038
-0.113098
-0.124213
-0.124213
-0.113098
-0.0905036
-0.0568599
-0.0150947
0.0289363
0.06761
0.09457
0.107569
0.108859
0.103101
0.0927596
0.0771808
0.0532715
0.0216084
-0.0126782
-0.0400249
-0.0534634
-0.0515974
-0.0396652
-0.025722
-0.0153941
-0.00998569
-0.00636243
-0.00280461
-0.00054553
-0.00168201
-0.00467637
-0.00565186
-0.00429065
-0.00310855
-0.00268856
-0.00156891
-0.00079432
-0.00229652
-0.00378848
-0.00197686
0.000320313
-0.000627782
-0.00184664
-0.000894122
0.000141907
-9.22268e-05
-0.00108744
-0.00117932
-0.000293285
-0.000462198
-0.000574365
0.000845971
0.00089959
0.000693296
0.00061749
-0.000230725
-0.000362266
-0.00106708
-0.00108696
-1.51614e-05
-0.000202138
-0.00101386
-0.00165574
-0.0019692
-0.000757712
-0.000390367
-0.00239024
-0.00328986
-0.00173408
-0.000404226
-0.00138655
-0.00343928
-0.00485425
-0.00615575
-0.00693103
-0.00512096
-0.00188908
-0.00192488
-0.00659223
-0.0129997
-0.0180818
-0.0226664
-0.0297315
-0.0388637
-0.0465997
-0.0465965
-0.0341872
-0.00815327
0.0271226
0.0631116
0.0921351
0.110234
0.118746
0.119392
0.112556
0.095485
0.0663626
0.0260014
-0.0204443
-0.0660729
-0.104306
-0.131093
-0.144662
-0.144662
-0.131093
-0.104306
-0.0660731
-0.0204444
0.0260016
0.0663634
0.0954863
0.112558
0.119394
0.118748
0.110235
0.0921362
0.0631122
0.0271224
-0.0081546
-0.0341895
-0.0465993
-0.0466022
-0.0388651
-0.0297317
-0.022666
-0.0180814
-0.0129992
-0.00659115
-0.00192339
-0.00188806
-0.00512122
-0.00693201
-0.00615652
-0.00485459
-0.00343911
-0.00138576
-0.000403306
-0.00173397
-0.00329074
-0.00239068
-0.000389512
-0.000757158
-0.00196977
-0.00165637
-0.00101393
-0.000201472
-1.45585e-05
-0.00108744
-0.00106769
-0.000362346
-0.000230658
0.000618116
0.00069386
-0.000438701
-0.00106581
-0.000516384
0.000130049
-0.000323277
-9.27043e-05
-0.000202138
-0.0018879
-0.00226706
-0.00115196
-0.000427493
-0.0006817
-0.0022773
-0.00334563
-0.00271743
-0.00165787
-0.00118724
-0.00249402
-0.00485466
-0.00614979
-0.00626442
-0.00556363
-0.00356278
-0.00182551
-0.0037341
-0.0102022
-0.0189624
-0.0263878
-0.0320342
-0.0369873
-0.0411508
-0.0434658
-0.0405262
-0.0289003
-0.00491148
0.0302709
0.0700177
0.104415
0.125982
0.133497
0.129607
0.117566
0.0972977
0.067584
0.0278374
-0.0186838
-0.0662395
-0.107905
-0.138352
-0.154235
-0.154235
-0.138352
-0.107905
-0.0662397
-0.0186839
0.0278376
0.0675847
0.097299
0.117568
0.129609
0.1335
0.125984
0.104416
0.0700182
0.0302702
-0.00491321
-0.0289028
-0.0405291
-0.0434686
-0.041153
-0.0369887
-0.0320347
-0.0263879
-0.0189621
-0.0102011
-0.00373235
-0.00182378
-0.00356201
-0.005564
-0.00626527
-0.00615057
-0.00485487
-0.00249338
-0.00118629
-0.00165731
-0.00271782
-0.00334677
-0.00227758
-0.000680697
-0.000426607
-0.0011521
-0.00226817
-0.00188852
-0.000201473
-9.2227e-05
-0.00032322
0.00013039
-0.000516562
-0.00106651
-0.000439003
-0.000810503
-0.00125939
-0.000491965
-0.000373273
-0.000282916
0.000141157
-0.00101386
-0.00226706
-0.00147865
-0.000280365
-0.000252805
-0.00225797
-0.00429447
-0.00313827
-0.00137212
-0.00160162
-0.00287854
-0.00498997
-0.00677289
-0.0065431
-0.00476221
-0.00321798
-0.00282265
-0.00396746
-0.00748115
-0.0145331
-0.0245631
-0.0341581
-0.0410648
-0.0434994
-0.0417732
-0.0372311
-0.0301328
-0.0187112
0.00252715
0.035573
0.0765149
0.114121
0.138072
0.144198
0.13563
0.118089
0.0945006
0.0645445
0.0264476
-0.0187415
-0.066843
-0.110963
-0.14454
-0.162546
-0.162546
-0.14454
-0.110963
-0.0668432
-0.0187417
0.0264476
0.064545
0.0945018
0.118091
0.135632
0.144201
0.138075
0.114123
0.0765155
0.0355722
0.00252539
-0.0187135
-0.0301353
-0.0372339
-0.0417762
-0.0435022
-0.0410667
-0.0341588
-0.0245628
-0.014532
-0.00747948
-0.00396549
-0.00282081
-0.00321701
-0.00476233
-0.00654406
-0.00677399
-0.00499036
-0.00287799
-0.00160047
-0.00137126
-0.00313913
-0.00429613
-0.00225799
-0.000251464
-0.000279468
-0.00147909
-0.00226817
-0.00101393
0.000141911
-0.000282585
-0.00037311
-0.00049204
-0.00126019
-0.000811053
-0.000237079
0.000313539
0.000457696
-0.0010586
-0.00125852
-0.000894052
-0.00165574
-0.00115196
-0.000280365
-0.000911426
-0.00207322
-0.00387985
-0.00397249
-0.00124874
-0.000278329
-0.00225494
-0.00503538
-0.00734283
-0.00778066
-0.00595052
-0.00345376
-0.00319919
-0.0060169
-0.00988473
-0.0135052
-0.0194125
-0.0290536
-0.0395136
-0.0462789
-0.0451069
-0.0371044
-0.0255038
-0.0142137
-0.00279438
0.0147176
0.0431396
0.0815675
0.118951
0.143396
0.14771
0.134925
0.112138
0.0853325
0.0551711
0.0193179
-0.023526
-0.070857
-0.116306
-0.152216
-0.171978
-0.171978
-0.152217
-0.116307
-0.0708575
-0.0235266
0.0193174
0.055171
0.0853331
0.11214
0.134927
0.147713
0.143399
0.118953
0.0815684
0.0431391
0.0147164
-0.00279574
-0.0142151
-0.0255057
-0.0371072
-0.0451102
-0.0462816
-0.0395147
-0.0290532
-0.0194114
-0.0135042
-0.00988377
-0.00601541
-0.00319749
-0.0034528
-0.00595092
-0.00778215
-0.0073443
-0.00503568
-0.00225379
-0.00027638
-0.00124802
-0.00397393
-0.00388121
-0.00207312
-0.000910516
-0.000279466
-0.0011521
-0.00165636
-0.000894123
-0.00125881
-0.00105884
0.000458316
0.000313858
-0.000237239
0.000313322
0.00135291
0.000911409
-0.00116661
-0.00168048
-0.00184593
-0.0019692
-0.000427493
-0.000252805
-0.00207322
-0.00341081
-0.00380168
-0.00225071
-0.000654371
-0.00192988
-0.00462134
-0.00696633
-0.0077544
-0.00647481
-0.00401991
-0.00245289
-0.00468028
-0.0105647
-0.0161839
-0.0196021
-0.0248159
-0.03435
-0.0454189
-0.0511142
-0.0462007
-0.032476
-0.0144735
0.00127563
0.0142525
0.0290895
0.0527178
0.0865964
0.121891
0.146202
0.150022
0.135173
0.108978
0.0799425
0.0498783
0.0166818
-0.0230619
-0.0683829
-0.113922
-0.151135
-0.172125
-0.172125
-0.151135
-0.113923
-0.0683834
-0.0230625
0.0166813
0.0498781
0.0799429
0.108979
0.135175
0.150025
0.146206
0.121894
0.0865977
0.0527177
0.0290887
0.0142517
0.00127488
-0.0144749
-0.0324789
-0.0462047
-0.0511181
-0.0454211
-0.0343499
-0.0248147
-0.0196012
-0.0161837
-0.010564
-0.00467842
-0.00245081
-0.00401894
-0.00647549
-0.00775609
-0.00696758
-0.00462129
-0.00192847
-0.000652595
-0.00225058
-0.00380309
-0.00341194
-0.00207312
-0.000251461
-0.000426604
-0.00196977
-0.00184665
-0.0016811
-0.00116702
0.000912203
0.00135397
0.000313603
-0.000446401
-0.000721215
-0.000914551
-0.00107767
-0.000525732
-0.000627973
-0.000757712
-0.0006817
-0.00225797
-0.00387985
-0.00380168
-0.00229161
-0.000644775
-0.0018705
-0.00514489
-0.00743106
-0.00785018
-0.00620342
-0.00402165
-0.00267536
-0.00326442
-0.00763445
-0.0151828
-0.0218652
-0.0260602
-0.0315797
-0.040688
-0.0505438
-0.0530351
-0.0438322
-0.0249725
-0.00189966
0.0180901
0.0333654
0.0461452
0.0642052
0.090745
0.121079
0.143408
0.147295
0.131933
0.104048
0.0733147
0.0431927
0.0122502
-0.024199
-0.0666989
-0.111113
-0.148516
-0.170078
-0.170078
-0.148516
-0.111113
-0.0666994
-0.0241996
0.0122497
0.0431924
0.0733149
0.104049
0.131936
0.147298
0.143411
0.121082
0.090747
0.064206
0.0461453
0.0333655
0.0180899
-0.00190065
-0.0249753
-0.0438369
-0.0530403
-0.0505476
-0.0406892
-0.031579
-0.0260593
-0.021865
-0.0151825
-0.00763285
-0.0032618
-0.00267304
-0.00402076
-0.00620428
-0.00785198
-0.00743253
-0.00514509
-0.00186889
-0.000642845
-0.0022915
-0.00380308
-0.00388121
-0.00225799
-0.000680698
-0.000757158
-0.000627783
-0.0005256
-0.001078
-0.000914896
-0.000721329
-0.00044647
-0.00119675
-0.00261644
-0.00222086
-0.000659718
0.000439033
0.000319269
-0.000390367
-0.0022773
-0.00429447
-0.00397249
-0.00225071
-0.000644775
-0.00095462
-0.00440702
-0.0078884
-0.00888482
-0.00710037
-0.00410698
-0.003262
-0.0049604
-0.00797025
-0.0125725
-0.0193514
-0.02627
-0.031825
-0.0374382
-0.0444333
-0.0504162
-0.0483103
-0.0355753
-0.0137382
0.0115726
0.0342369
0.0510622
0.0618155
0.0733315
0.0903844
0.113249
0.132133
0.136852
0.122961
0.095723
0.064346
0.0343743
0.00525249
-0.0277447
-0.066695
-0.10861
-0.14492
-0.166231
-0.166231
-0.144921
-0.10861
-0.0666956
-0.0277454
0.00525184
0.0343737
0.0643457
0.0957234
0.122962
0.136854
0.132136
0.113252
0.0903866
0.0733329
0.0618164
0.051063
0.0342373
0.0115721
-0.0137403
-0.0355794
-0.0483154
-0.0504208
-0.0444357
-0.0374383
-0.0318241
-0.0262692
-0.0193511
-0.0125718
-0.00796863
-0.00495814
-0.00325991
-0.00410621
-0.00710155
-0.00888709
-0.00789017
-0.00440675
-0.000952375
-0.000642843
-0.00225058
-0.00397394
-0.00429614
-0.00227758
-0.000389507
0.000320322
0.000439994
-0.00065955
-0.00222185
-0.00261777
-0.00119734
0.00021206
6.77176e-05
-0.000287289
-0.000331503
-0.00109917
-0.00197676
-0.00239024
-0.00334563
-0.00313827
-0.00124874
-0.000654371
-0.0018705
-0.00440702
-0.00733844
-0.00845211
-0.00728677
-0.00431828
-0.002301
-0.00463154
-0.0101699
-0.0150327
-0.0184314
-0.0236331
-0.031341
-0.0389436
-0.0438755
-0.0464847
-0.0459831
-0.0385144
-0.0228964
0.000274005
0.0261813
0.0506601
0.0686813
0.0780544
0.0829812
0.0899512
0.103713
0.118197
0.124057
0.113283
0.0885593
0.0574074
0.0273875
-0.000840222
-0.0308764
-0.0660879
-0.104484
-0.138568
-0.158839
-0.158839
-0.138568
-0.104485
-0.0660885
-0.030877
-0.00084086
0.0273869
0.0574069
0.0885594
0.113283
0.124059
0.1182
0.103716
0.0899536
0.0829834
0.0780563
0.0686829
0.050661
0.0261812
0.000272652
-0.0228995
-0.0385188
-0.045988
-0.0464885
-0.0438773
-0.0389435
-0.0313399
-0.0236321
-0.0184312
-0.0150327
-0.010169
-0.00462913
-0.00229842
-0.00431741
-0.00728803
-0.00845431
-0.00733996
-0.00440675
-0.00186888
-0.000652594
-0.00124802
-0.00313913
-0.00334677
-0.00239068
-0.00197686
-0.00109891
-0.000331071
-0.000287144
6.78261e-05
0.000212182
0.00127371
0.00213027
0.00113345
-0.000375325
-0.00260797
-0.00378732
-0.00328986
-0.00271743
-0.00137212
-0.000278329
-0.00192988
-0.00514489
-0.0078884
-0.00845211
-0.00663046
-0.00428992
-0.00232813
-0.0025876
-0.00740135
-0.0151516
-0.0207873
-0.0235321
-0.0286467
-0.0384563
-0.0481594
-0.0510452
-0.0470312
-0.0382842
-0.025209
-0.00710838
0.0164024
0.0422285
0.0675485
0.0861094
0.094165
0.0927328
0.0898031
0.0934592
0.102766
0.109377
0.102812
0.0818635
0.0518591
0.0214968
-0.00669711
-0.0345497
-0.0660008
-0.100083
-0.130838
-0.149304
-0.149305
-0.130838
-0.100083
-0.0660014
-0.0345503
-0.00669769
0.0214962
0.0518587
0.0818633
0.102812
0.109378
0.102767
0.0934614
0.0898058
0.0927361
0.0941684
0.0861123
0.0675504
0.0422291
0.0164019
-0.00711033
-0.0252124
-0.038289
-0.0470366
-0.0510498
-0.0481618
-0.038456
-0.0286451
-0.0235313
-0.0207877
-0.0151517
-0.00739944
-0.0025843
-0.00232548
-0.00428921
-0.00663163
-0.00845431
-0.00789017
-0.00514509
-0.00192847
-0.000276377
-0.00137125
-0.00271782
-0.00329075
-0.00378849
-0.00260872
-0.000375087
0.0011344
0.00213158
0.00127441
4.72185e-05
-0.000534527
-0.00101328
-0.00101745
-0.00190595
-0.00229614
-0.00173408
-0.00165787
-0.00160162
-0.00225494
-0.00462134
-0.00743106
-0.00888482
-0.00728677
-0.00428992
-0.00332947
-0.00452715
-0.00721096
-0.0122043
-0.0190695
-0.024318
-0.0272761
-0.0328547
-0.0437639
-0.0535364
-0.0530285
-0.0422866
-0.0266461
-0.0101231
0.00828126
0.0302192
0.0545627
0.0789423
0.0969623
0.103538
0.0971781
0.0861222
0.080782
0.0853732
0.0930442
0.092017
0.0764528
0.049214
0.0189112
-0.00942773
-0.0356288
-0.0631463
-0.0921864
-0.118489
-0.134407
-0.134407
-0.11849
-0.0921869
-0.0631468
-0.0356292
-0.00942811
0.0189108
0.0492136
0.0764526
0.092017
0.0930445
0.0853739
0.0807834
0.0861247
0.0971816
0.103542
0.0969659
0.0789447
0.0545635
0.0302189
0.00828004
-0.0101253
-0.02665
-0.0422923
-0.0530348
-0.0535411
-0.043765
-0.0328529
-0.0272741
-0.0243175
-0.0190698
-0.0122036
-0.00720888
-0.00452451
-0.00332734
-0.00428922
-0.00728804
-0.00888709
-0.00743253
-0.00462129
-0.00225379
-0.00160047
-0.00165731
-0.00173398
-0.00229651
-0.00190638
-0.00101751
-0.00101325
-0.000534477
4.72858e-05
-0.000855729
-0.00271734
-0.0031917
-0.00193343
-0.00121219
-0.000794901
-0.000404226
-0.00118724
-0.00287854
-0.00503538
-0.00696633
-0.00785018
-0.00710037
-0.00431828
-0.00232813
-0.00452715
-0.00990089
-0.0148728
-0.0186872
-0.0237106
-0.0293553
-0.0336571
-0.0387187
-0.0469229
-0.0525368
-0.0467385
-0.0297237
-0.00895516
0.00922963
0.0262915
0.0451279
0.0661604
0.0871572
0.102394
0.106283
0.0957768
0.0780637
0.0648852
0.0645797
0.0727576
0.0771553
0.0677307
0.044265
0.0144626
-0.0142399
-0.0393392
-0.0630248
-0.0865569
-0.107537
-0.120277
-0.120277
-0.107538
-0.0865574
-0.0630252
-0.0393395
-0.0142401
0.0144623
0.0442647
0.0677303
0.0771549
0.0727571
0.0645794
0.0648855
0.0780653
0.09578
0.106287
0.102398
0.08716
0.0661616
0.045128
0.0262912
0.00922887
-0.00895711
-0.029728
-0.0467447
-0.0525428
-0.0469261
-0.0387183
-0.0336552
-0.0293539
-0.0237104
-0.0186876
-0.0148728
-0.00989963
-0.00452451
-0.00232549
-0.00431741
-0.00710154
-0.00785198
-0.00696758
-0.00503568
-0.00287799
-0.00118629
-0.0004033
-0.000794309
-0.00121199
-0.00193372
-0.00319258
-0.00271825
-0.000856051
-0.000167194
-0.00124869
-0.00197025
-0.00144821
-0.00146205
-0.00156933
-0.00138655
-0.00249402
-0.00498997
-0.00734283
-0.0077544
-0.00620342
-0.00410698
-0.002301
-0.0025876
-0.00721096
-0.0148728
-0.0206011
-0.0234417
-0.0284497
-0.0369726
-0.044325
-0.0479358
-0.0499207
-0.04813
-0.0361629
-0.0137462
0.0112946
0.0313777
0.0476627
0.0636085
0.0807033
0.0968164
0.107569
0.107886
0.0939649
0.0711707
0.0512051
0.0454317
0.052533
0.0608512
0.0570618
0.0374859
0.00826455
-0.0213022
-0.0460908
-0.0665293
-0.084549
-0.0997803
-0.108935
-0.108935
-0.0997808
-0.0845496
-0.0665298
-0.0460912
-0.0213025
0.0082642
0.0374855
0.0570612
0.0608503
0.0525318
0.0454305
0.0512045
0.0711718
0.0939679
0.10789
0.107574
0.0968203
0.0807059
0.0636101
0.0476638
0.0313785
0.0112944
-0.0137488
-0.0361684
-0.0481368
-0.0499264
-0.047939
-0.0443257
-0.0369715
-0.0284483
-0.0234413
-0.0206018
-0.0148728
-0.00720888
-0.0025843
-0.00229841
-0.0041062
-0.00620428
-0.00775609
-0.0073443
-0.00499035
-0.00249339
-0.00138576
-0.00156891
-0.00146181
-0.00144821
-0.00197067
-0.001249
-0.000167212
0.000618882
0.000627838
-6.48886e-05
-0.000377342
-0.00149229
-0.00268859
-0.00343928
-0.00485466
-0.00677289
-0.00778066
-0.00647481
-0.00402165
-0.003262
-0.00463154
-0.00740135
-0.0122043
-0.0186872
-0.0234417
-0.0259521
-0.0317548
-0.0430231
-0.0524431
-0.05315
-0.0477805
-0.0390922
-0.0237445
0.000271953
0.0269787
0.0483577
0.0641292
0.0775951
0.090882
0.102236
0.108935
0.106914
0.0922849
0.0678314
0.0440012
0.0337669
0.0392156
0.0504002
0.0519075
0.0366584
0.00857465
-0.0217966
-0.0467479
-0.0644705
-0.0771772
-0.0864816
-0.0918169
-0.091817
-0.086482
-0.0771777
-0.0644709
-0.0467482
-0.0217967
0.00857458
0.0366583
0.0519072
0.0503995
0.0392144
0.0337655
0.0440004
0.0678321
0.0922876
0.106918
0.10894
0.102241
0.0908856
0.0775976
0.064131
0.0483589
0.0269791
0.000270259
-0.0237488
-0.0390984
-0.0477873
-0.0531562
-0.0524469
-0.0430234
-0.0317524
-0.0259499
-0.0234413
-0.0186876
-0.0122036
-0.00739944
-0.00462912
-0.00325991
-0.00402077
-0.0064755
-0.00778215
-0.006774
-0.00485488
-0.00343911
-0.00268856
-0.00149208
-0.000376933
-6.46241e-05
0.00062823
0.000619187
0.000334003
2.62182e-05
-0.000640023
-0.000690297
-0.00148467
-0.00310853
-0.00485425
-0.00614979
-0.0065431
-0.00595052
-0.00401991
-0.00267536
-0.0049604
-0.0101699
-0.0151516
-0.0190695
-0.0237106
-0.0284497
-0.0317548
-0.0370991
-0.0468378
-0.0533319
-0.0480937
-0.0346365
-0.0203449
-0.00477962
0.0167069
0.0415603
0.0618121
0.0751036
0.0841066
0.0916949
0.097235
0.0995282
0.0959665
0.0827234
0.0597965
0.0352541
0.0222187
0.0261903
0.039666
0.0466323
0.0367055
0.0112565
-0.0189
-0.0435965
-0.0586437
-0.066026
-0.0692502
-0.0705793
-0.0705794
-0.0692506
-0.0660264
-0.0586439
-0.0435965
-0.0188999
0.0112568
0.0367058
0.0466323
0.0396654
0.0261891
0.0222171
0.0352529
0.0597964
0.0827249
0.0959695
0.099532
0.097239
0.0916985
0.0841094
0.0751057
0.0618136
0.0415609
0.0167061
-0.00478187
-0.0203486
-0.0346419
-0.0481004
-0.0533379
-0.0468405
-0.037098
-0.0317524
-0.0284483
-0.0237104
-0.0190698
-0.0151517
-0.010169
-0.00495814
-0.00267305
-0.00401894
-0.00595091
-0.00654406
-0.00615058
-0.00485459
-0.00310854
-0.00148433
-0.00068992
-0.00063997
2.6486e-05
0.000334311
-0.000279769
-0.0010128
-0.00155052
-0.00183967
-0.00263282
-0.0042904
-0.00615575
-0.00626442
-0.00476221
-0.00345376
-0.00245289
-0.00326442
-0.00797025
-0.0150327
-0.0207873
-0.024318
-0.0293553
-0.0369726
-0.0430231
-0.0468378
-0.0509164
-0.0504475
-0.0376089
-0.0160531
0.00380557
0.0197209
0.0384128
0.0608774
0.0793963
0.0892673
0.0921064
0.0920956
0.0901796
0.086715
0.0806161
0.0682542
0.0473223
0.0226149
0.00656993
0.00744039
0.0210744
0.0319996
0.0271659
0.00501558
-0.0242703
-0.0485211
-0.0611952
-0.0636111
-0.0609841
-0.0583596
-0.0583598
-0.0609845
-0.0636116
-0.0611955
-0.0485213
-0.0242703
0.00501567
0.027166
0.0319993
0.0210734
0.00743864
0.00656772
0.0226129
0.0473212
0.0682544
0.0806175
0.0867174
0.0901829
0.0920993
0.0921103
0.0892709
0.0793991
0.0608792
0.0384134
0.0197209
0.00380473
-0.0160561
-0.0376149
-0.0504548
-0.0509222
-0.0468405
-0.0430234
-0.0369715
-0.0293539
-0.0243175
-0.0207877
-0.0150327
-0.00796863
-0.0032618
-0.0024508
-0.0034528
-0.00476233
-0.00626527
-0.00615652
-0.00429064
-0.00263258
-0.00183938
-0.00155063
-0.00101286
-0.000279653
-0.000231863
-0.000297034
-0.000895018
-0.00280513
-0.00432281
-0.00565123
-0.00693103
-0.00556363
-0.00321798
-0.00319919
-0.00468028
-0.00763445
-0.0125725
-0.0184314
-0.0235321
-0.0272761
-0.0336571
-0.044325
-0.0524431
-0.0533319
-0.0504475
-0.043486
-0.0261448
-0.000292176
0.0233207
0.0398374
0.0565966
0.0774129
0.0952039
0.102973
0.10098
0.0947943
0.0869342
0.0791703
0.071344
0.0603948
0.0420772
0.0178646
-0.00132759
-0.00516339
0.00615474
0.0187347
0.0179014
-0.00111752
-0.029361
-0.053454
-0.0644754
-0.062859
-0.0550971
-0.0488993
-0.0488995
-0.0550975
-0.0628594
-0.0644758
-0.0534543
-0.0293611
-0.00111753
0.0179013
0.0187342
0.0061537
-0.00516515
-0.00132972
0.0178626
0.042076
0.0603945
0.0713447
0.0791719
0.0869371
0.0947985
0.100985
0.102978
0.0952083
0.0774157
0.056598
0.0398383
0.0233212
-0.000293675
-0.0261495
-0.0434932
-0.0504548
-0.053338
-0.0524469
-0.0443257
-0.0336553
-0.0272741
-0.0235313
-0.0184312
-0.0125718
-0.00763285
-0.00467841
-0.00319748
-0.00321701
-0.00556401
-0.00693201
-0.00565187
-0.00432301
-0.00280493
-0.000894667
-0.000296783
-0.000231757
-0.000537203
-0.000385918
-0.00111714
-0.00407361
-0.00493583
-0.00467601
-0.00512096
-0.00356278
-0.00282265
-0.0060169
-0.0105647
-0.0151828
-0.0193514
-0.0236331
-0.0286467
-0.0328547
-0.0387187
-0.0479358
-0.05315
-0.0480937
-0.0376089
-0.0261448
-0.00906469
0.0154981
0.0387616
0.0534829
0.0662559
0.0830752
0.0986395
0.104408
0.099175
0.0894676
0.079066
0.0705955
0.0640804
0.0570507
0.0437288
0.0225609
0.00211633
-0.00584576
0.00239067
0.0156217
0.0184648
0.00314241
-0.0232455
-0.0468201
-0.0565178
-0.0516404
-0.0395108
-0.0301941
-0.0301942
-0.0395111
-0.0516407
-0.0565181
-0.0468202
-0.0232454
0.0031427
0.0184651
0.0156217
0.0023902
-0.00584681
0.00211505
0.0225598
0.0437282
0.0570505
0.0640806
0.0705964
0.079068
0.089471
0.0991797
0.104413
0.098644
0.083078
0.0662573
0.0534838
0.0387624
0.0154975
-0.00906753
-0.0261495
-0.0376149
-0.0481004
-0.0531562
-0.047939
-0.0387183
-0.0328529
-0.0286451
-0.0236321
-0.0193511
-0.0151825
-0.010564
-0.00601541
-0.00282082
-0.00356202
-0.00512121
-0.00467638
-0.0049364
-0.00407391
-0.00111668
-0.000385507
-0.000537162
-0.00199253
-0.00315817
-0.00376718
-0.00596695
-0.00428741
-0.0016827
-0.00188908
-0.00182551
-0.00396746
-0.00988473
-0.0161839
-0.0218652
-0.02627
-0.031341
-0.0384563
-0.0437639
-0.0469229
-0.0499207
-0.0477805
-0.0346365
-0.0160531
-0.000292176
0.0154981
0.037129
0.0586841
0.070622
0.0774136
0.0866692
0.0963472
0.0975017
0.0877126
0.0739464
0.0609958
0.0521455
0.0470491
0.0439656
0.0360719
0.0193153
-0.000663291
-0.0115816
-0.00619263
0.00765167
0.0147636
0.00465175
-0.0179863
-0.039571
-0.0473323
-0.0393215
-0.02326
-0.0111543
-0.0111543
-0.0232602
-0.0393217
-0.0473324
-0.039571
-0.017986
0.00465215
0.014764
0.00765179
-0.00619301
-0.0115825
-0.000664385
0.0193142
0.036071
0.0439647
0.0470481
0.0521448
0.0609959
0.0739481
0.0877159
0.0975062
0.0963516
0.0866725
0.0774159
0.070624
0.0586859
0.0371296
0.0154975
-0.000293664
-0.0160561
-0.0346418
-0.0477873
-0.0499264
-0.0469261
-0.043765
-0.038456
-0.0313399
-0.0262693
-0.021865
-0.0161837
-0.00988378
-0.00396549
-0.00182378
-0.00188805
-0.00168201
-0.00428783
-0.00596792
-0.00376743
-0.00315851
-0.00199295
-0.00305661
-0.00507724
-0.00523273
-0.00651905
-0.00346768
-0.000547009
-0.00192488
-0.0037341
-0.00748115
-0.0135052
-0.0196021
-0.0260602
-0.031825
-0.0389436
-0.0481594
-0.0535364
-0.0525368
-0.04813
-0.0390922
-0.0203449
0.00380557
0.0233207
0.0387616
0.0586841
0.0799326
0.090881
0.0927663
0.0941067
0.0970734
0.0932178
0.0791492
0.0613144
0.045435
0.0352977
0.0300304
0.0288303
0.0243138
0.0108806
-0.00919205
-0.0236849
-0.0226035
-0.00984019
0.000362128
-0.00461117
-0.0228875
-0.0419222
-0.0478115
-0.0373445
-0.018226
-0.00391864
-0.0039187
-0.0182261
-0.0373447
-0.0478116
-0.0419223
-0.0228875
-0.004611
0.000362264
-0.00984039
-0.0226042
-0.023686
-0.00919328
0.0108794
0.0243126
0.0288287
0.0300284
0.0352958
0.0454337
0.0613147
0.0791514
0.0932217
0.097078
0.0941111
0.0927705
0.0908849
0.0799359
0.058686
0.0387624
0.0233212
0.00380473
-0.0203485
-0.0390984
-0.0481368
-0.0525428
-0.0535411
-0.0481618
-0.0389435
-0.0318241
-0.0260593
-0.0196012
-0.0135042
-0.00747948
-0.00373234
-0.00192337
-0.000545532
-0.00346761
-0.00652018
-0.00523341
-0.0050782
-0.00305741
-0.00210839
-0.00246771
-0.00192083
-0.00381978
-0.00280542
-0.0028061
-0.00659223
-0.0102022
-0.0145331
-0.0194125
-0.0248159
-0.0315797
-0.0374382
-0.0438755
-0.0510452
-0.0530285
-0.0467385
-0.0361629
-0.0237445
-0.00477962
0.0197209
0.0398374
0.0534829
0.070622
0.090881
0.101793
0.100934
0.0969245
0.0961372
0.0910005
0.0769487
0.0585712
0.0422681
0.0319823
0.0265468
0.0259929
0.023078
0.0115213
-0.00971484
-0.028927
-0.0342269
-0.0250543
-0.0140974
-0.0151754
-0.0295817
-0.0462815
-0.0509921
-0.039196
-0.0182807
-0.00256563
-0.00256569
-0.0182809
-0.0391962
-0.0509923
-0.0462817
-0.0295819
-0.0151755
-0.0140976
-0.0250547
-0.0342277
-0.0289281
-0.0097158
0.0115205
0.0230772
0.0259918
0.0265452
0.0319806
0.0422669
0.0585712
0.0769504
0.0910039
0.0961415
0.0969292
0.100939
0.101798
0.0908849
0.070624
0.0534838
0.0398383
0.0197209
-0.00478187
-0.0237488
-0.0361684
-0.0467447
-0.0530348
-0.0510498
-0.0438773
-0.0374383
-0.031579
-0.0248147
-0.0194114
-0.014532
-0.0102011
-0.00659115
-0.00280462
-0.00280481
-0.00382018
-0.00192082
-0.0024682
-0.00210907
3.42126e-05
0.00261662
0.00398798
0.000938009
-0.00188778
-0.00636364
-0.0129997
-0.0189624
-0.0245631
-0.0290536
-0.03435
-0.040688
-0.0444333
-0.0464847
-0.0470312
-0.0422866
-0.0297237
-0.0137462
0.000271953
0.0167069
0.0384128
0.0565966
0.0662559
0.0774136
0.0927663
0.100934
0.0961707
0.0866994
0.0826836
0.0779597
0.0668118
0.0509617
0.0372178
0.0293359
0.0261015
0.027927
0.0281548
0.0202746
0.000167959
-0.0216052
-0.0321172
-0.0263163
-0.0147648
-0.0115931
-0.0213294
-0.0348287
-0.0381453
-0.0254787
-0.00361728
0.0128949
0.0128949
-0.0036173
-0.0254787
-0.0381454