/*--------------------------------*- C++ -*----------------------------------*\
  =========                 |
  \\      /  F ield         | OpenFOAM: The Open Source CFD Toolbox
   \\    /   O peration     | Website:  https://openfoam.org
    \\  /    A nd           | Version:  10
     \\/     M anipulation  |
\*---------------------------------------------------------------------------*/
FoamFile
{
    format      ascii;
    class       volScalarField;
    location    "44";
    object      h;
}
// * * * * * * * * * * * * * * * * * * * * * * * * * * * * * * * * * * * * * //

dimensions      [0 1 0 0 0 0 0];

internalField   nonuniform List<scalar> 
10000
(
0.00247907
0.00737228
0.012058
0.0162071
0.0193945
0.0213128
0.0218956
0.0215534
0.021
0.0208535
0.0213125
0.0219482
0.0219781
0.021025
0.0195086
0.0186114
0.0194831
0.021975
0.024675
0.0257241
0.0243548
0.0216152
0.0193821
0.0188807
0.0196113
0.0201557
0.0195136
0.0180031
0.0164913
0.0155515
0.0151584
0.014843
0.0143027
0.0133956
0.0123397
0.0115129
0.0112477
0.0111122
0.010508
0.00956229
0.00906916
0.00912628
0.00897434
0.00833534
0.00789538
0.00797729
0.00797133
0.00761463
0.00744928
0.00762574
0.00762574
0.00744927
0.00761461
0.00797131
0.00797726
0.00789534
0.00833531
0.00897432
0.00912624
0.00906911
0.00956226
0.010508
0.0111122
0.0112477
0.0115129
0.0123397
0.0133957
0.0143028
0.0148431
0.0151586
0.0155517
0.0164915
0.0180034
0.019514
0.0201561
0.0196117
0.018881
0.0193824
0.0216157
0.0243556
0.0257249
0.0246757
0.0219754
0.0194834
0.0186117
0.0195091
0.0210255
0.0219786
0.0219486
0.0213126
0.0208536
0.0210001
0.0215535
0.0218958
0.021313
0.0193946
0.0162072
0.0120579
0.00737222
0.00247904
0.00737228
0.0219256
0.0358599
0.0482016
0.0576689
0.0633067
0.0649208
0.0637317
0.0618405
0.0611388
0.0622496
0.0638598
0.0636626
0.0605468
0.0558131
0.0529771
0.0553199
0.0624076
0.0701535
0.0731322
0.0690649
0.0610478
0.0545608
0.053134
0.0553425
0.0570555
0.0554244
0.051309
0.047176
0.0446623
0.0437411
0.0430825
0.0417572
0.0393623
0.036515
0.0343433
0.0337416
0.0334856
0.0318794
0.0293255
0.02803
0.0282585
0.0278868
0.0261536
0.0249693
0.0252321
0.02524
0.0242605
0.0238129
0.0243164
0.0243164
0.0238129
0.0242605
0.0252399
0.0252321
0.0249692
0.0261536
0.0278867
0.0282584
0.0280299
0.0293255
0.0318795
0.0334856
0.0337416
0.0343433
0.0365152
0.0393625
0.0417575
0.0430828
0.0437416
0.0446627
0.0471765
0.0513097
0.0554254
0.0570567
0.0553435
0.0531347
0.0545616
0.0610492
0.0690669
0.0731344
0.0701553
0.0624087
0.0553205
0.0529778
0.0558142
0.0605483
0.0636641
0.0638608
0.06225
0.0611389
0.0618406
0.063732
0.0649214
0.0633074
0.0576694
0.0482019
0.03586
0.0219255
0.00737221
0.012058
0.0358599
0.0585641
0.0785646
0.0938113
0.102722
0.105036
0.102733
0.0991239
0.0972759
0.0981729
0.0997213
0.0984509
0.0926552
0.0844702
0.0795086
0.0827761
0.0935867
0.105508
0.11005
0.103659
0.09118
0.0810763
0.0788104
0.0823852
0.0853979
0.0834572
0.0777105
0.0718682
0.068459
0.0675707
0.0672093
0.0657964
0.0627082
0.0588938
0.0561609
0.055716
0.0557111
0.0536552
0.0502546
0.0486555
0.0492046
0.0488375
0.0465101
0.0449535
0.045446
0.045534
0.0441778
0.0435807
0.0443424
0.0443424
0.0435807
0.0441777
0.045534
0.045446
0.0449534
0.0465101
0.0488375
0.0492045
0.0486554
0.0502546
0.0536553
0.0557112
0.055716
0.056161
0.058894
0.0627085
0.0657967
0.0672097
0.0675712
0.0684595
0.0718689
0.0777114
0.0834585
0.0853994
0.0823865
0.0788113
0.0810773
0.0911816
0.103661
0.110053
0.10551
0.0935879
0.0827767
0.0795093
0.0844717
0.0926572
0.0984529
0.0997228
0.0981736
0.0972761
0.0991242
0.102733
0.105037
0.102723
0.0938124
0.0785653
0.0585644
0.03586
0.0120579
0.0162071
0.0482016
0.0785646
0.105108
0.125166
0.136589
0.139126
0.135399
0.129686
0.126044
0.125732
0.126089
0.122929
0.114142
0.1026
0.0956086
0.0993391
0.112877
0.127926
0.133717
0.125804
0.110244
0.0975757
0.0946592
0.0993702
0.103752
0.102301
0.0961393
0.0896812
0.086106
0.0857395
0.0862338
0.0853925
0.0824163
0.0785148
0.076018
0.0761328
0.076617
0.0746529
0.0712456
0.0698491
0.070749
0.070542
0.0681743
0.0666601
0.0673649
0.0675482
0.0660962
0.0655019
0.0664141
0.0664142
0.0655019
0.0660961
0.0675482
0.0673649
0.0666601
0.0681743
0.070542
0.0707491
0.0698492
0.0712457
0.074653
0.0766171
0.0761329
0.0760182
0.0785151
0.0824166
0.0853928
0.0862342
0.0857401
0.0861066
0.0896819
0.0961402
0.102302
0.103754
0.0993714
0.0946599
0.0975765
0.110245
0.125806
0.133719
0.127928
0.112878
0.0993393
0.095609
0.102602
0.114144
0.122931
0.12609
0.125733
0.126045
0.129687
0.135401
0.139128
0.136591
0.125168
0.105109
0.0785653
0.0482019
0.0162072
0.0193945
0.0576689
0.0938113
0.125166
0.148573
0.161418
0.163546
0.158086
0.150063
0.144302
0.142242
0.140844
0.135537
0.124087
0.110066
0.101896
0.106189
0.121728
0.13897
0.145815
0.137378
0.120326
0.106311
0.102894
0.108153
0.113558
0.113098
0.107565
0.101406
0.0981413
0.0984165
0.0999213
0.0999509
0.0975829
0.0942015
0.0924219
0.0931449
0.0940017
0.0923905
0.0895581
0.0886273
0.0896509
0.0895293
0.0874847
0.0862876
0.0870476
0.0872183
0.0858675
0.0853822
0.0863077
0.0863078
0.0853823
0.0858675
0.0872183
0.0870478
0.0862878
0.0874848
0.0895294
0.0896512
0.0886275
0.0895584
0.0923909
0.0940021
0.0931453
0.0924223
0.094202
0.0975834
0.0999514
0.0999219
0.0984172
0.098142
0.101407
0.107565
0.113099
0.113559
0.108154
0.102895
0.106311
0.120326
0.13738
0.145817
0.138971
0.121728
0.106189
0.101895
0.110066
0.124089
0.135538
0.140846
0.142243
0.144302
0.150064
0.158087
0.163548
0.161421
0.148575
0.125168
0.0938124
0.0576694
0.0193946
0.0213128
0.0633067
0.102722
0.136589
0.161418
0.174422
0.17564
0.168507
0.158552
0.150908
0.146996
0.143729
0.136567
0.123574
0.108839
0.101074
0.106648
0.123892
0.142612
0.150473
0.142738
0.125966
0.111798
0.107748
0.112402
0.117845
0.118146
0.113525
0.107853
0.104676
0.104967
0.106827
0.107299
0.105383
0.102577
0.101437
0.102346
0.103055
0.101702
0.0996495
0.099173
0.0999204
0.0996348
0.098061
0.0973068
0.097903
0.0978888
0.0967512
0.096434
0.097237
0.097237
0.0964341
0.0967512
0.097889
0.0979033
0.097307
0.0980612
0.0996351
0.0999208
0.0991735
0.09965
0.101703
0.103056
0.102346
0.101437
0.102578
0.105384
0.1073
0.106828
0.104968
0.104677
0.107854
0.113526
0.118147
0.117846
0.112403
0.107748
0.111798
0.125966
0.142739
0.150474
0.142613
0.123891
0.106646
0.101073
0.108839
0.123575
0.136568
0.14373
0.146996
0.150908
0.158552
0.168509
0.175642
0.174425
0.161421
0.136591
0.102723
0.0633074
0.021313
0.0218956
0.0649208
0.105036
0.139126
0.163546
0.17564
0.175652
0.16714
0.155894
0.146908
0.141479
0.136787
0.128565
0.11553
0.102093
0.0964515
0.104155
0.122846
0.14227
0.150972
0.144871
0.129779
0.116335
0.111316
0.113918
0.117929
0.118096
0.114018
0.108517
0.104781
0.104021
0.105041
0.105028
0.102963
0.100394
0.09942
0.0998174
0.0996722
0.0982476
0.0968741
0.0966527
0.0967049
0.095951
0.0948324
0.0945234
0.0947498
0.0943882
0.0935198
0.0933879
0.093948
0.093948
0.093388
0.0935199
0.0943884
0.0947501
0.0945237
0.0948326
0.0959514
0.0967054
0.0966532
0.0968746
0.0982481
0.0996729
0.0998182
0.0994209
0.100395
0.102964
0.105029
0.105042
0.104022
0.104782
0.108518
0.114019
0.118097
0.11793
0.113919
0.111316
0.116335
0.129779
0.144871
0.150972
0.14227
0.122845
0.104153
0.0964497
0.102091
0.11553
0.128565
0.136788
0.141479
0.146908
0.155894
0.167141
0.175654
0.175642
0.163548
0.139128
0.105037
0.0649214
0.0218958
0.0215534
0.0637317
0.102733
0.135399
0.158086
0.168507
0.16714
0.157598
0.145663
0.135798
0.129093
0.12314
0.114244
0.102196
0.0916153
0.0894827
0.0999212
0.119573
0.138689
0.147701
0.143566
0.131034
0.118897
0.112496
0.111582
0.112505
0.111355
0.107169
0.101459
0.0966069
0.0939192
0.0930376
0.0917294
0.0890637
0.086525
0.0854117
0.0848596
0.0834923
0.0818448
0.0811203
0.0810829
0.0803209
0.0790211
0.0784018
0.0785641
0.0783655
0.0776391
0.0771349
0.0772053
0.0774329
0.077433
0.0772053
0.0771349
0.0776392
0.0783657
0.0785643
0.0784019
0.0790214
0.0803214
0.0810833
0.0811206
0.0818452
0.083493
0.0848605
0.0854125
0.0865258
0.0890645
0.0917306
0.0930389
0.0939206
0.0966082
0.10146
0.10717
0.111356
0.112506
0.111583
0.112497
0.118897
0.131034
0.143566
0.147701
0.138689
0.119572
0.0999197
0.0894809
0.0916139
0.102195
0.114244
0.12314
0.129092
0.135798
0.145662
0.157598
0.167141
0.168509
0.158087
0.135401
0.102733
0.063732
0.0215535
0.021
0.0618405
0.0991239
0.129686
0.150063
0.158552
0.155894
0.145663
0.133261
0.122302
0.113607
0.105386
0.0950855
0.0839088
0.0765182
0.0781702
0.0910953
0.110812
0.128542
0.137336
0.135504
0.126575
0.116676
0.109104
0.104148
0.101097
0.0979058
0.0932181
0.087248
0.0812171
0.0763021
0.0729442
0.0698802
0.0664951
0.0640365
0.0627988
0.0612814
0.0588096
0.0570998
0.0571898
0.0574982
0.0561934
0.0546232
0.0547163
0.0554679
0.0549879
0.0540943
0.0541389
0.0544528
0.0542963
0.0542963
0.0544528
0.0541389
0.0540943
0.0549879
0.0554678
0.0547162
0.0546233
0.0561936
0.0574984
0.0571899
0.0570999
0.0588101
0.061282
0.0627993
0.0640369
0.0664956
0.0698811
0.0729452
0.0763031
0.081218
0.0872486
0.0932185
0.0979064
0.101098
0.104149
0.109104
0.116676
0.126574
0.135503
0.137335
0.128542
0.110812
0.0910944
0.0781688
0.0765169
0.0839081
0.0950855
0.105386
0.113607
0.122301
0.13326
0.145662
0.155894
0.158552
0.150064
0.129687
0.0991243
0.0618406
0.021
0.0208535
0.0611388
0.0972759
0.126044
0.144302
0.150908
0.146908
0.135798
0.122302
0.109161
0.0969701
0.0846901
0.0714094
0.0598273
0.0546356
0.0593094
0.0737888
0.0924817
0.107919
0.116144
0.117028
0.112877
0.106689
0.0993336
0.0914744
0.0850536
0.0802596
0.0757169
0.0704799
0.0643762
0.0581125
0.0527697
0.0482868
0.044671
0.0427453
0.0417716
0.0396749
0.0365674
0.0351182
0.0361756
0.0369759
0.035487
0.0340259
0.034973
0.0363021
0.0356675
0.0348477
0.0355732
0.036113
0.0355283
0.0355283
0.036113
0.0355731
0.0348477
0.0356674
0.036302
0.0349729
0.0340259
0.035487
0.0369759
0.0361755
0.0351182
0.0365677
0.0396753
0.0417719
0.0427454
0.0446713
0.0482874
0.0527704
0.058113
0.0643764
0.0704797
0.0757165
0.0802593
0.0850535
0.0914744
0.0993332
0.106688
0.112875
0.117026
0.116143
0.107919
0.092482
0.0737885
0.0593086
0.0546349
0.0598271
0.0714099
0.0846909
0.0969704
0.109161
0.122301
0.135798
0.146908
0.150908
0.144303
0.126045
0.0972761
0.0611389
0.0208535
0.0213125
0.0622496
0.0981729
0.125732
0.142242
0.146996
0.141479
0.129093
0.113607
0.0969701
0.0794932
0.0609739
0.0426567
0.0288328
0.0243811
0.0310996
0.0462598
0.0633358
0.0763954
0.0844118
0.0889812
0.0912925
0.0910138
0.0863793
0.0780895
0.0701171
0.0650478
0.0619089
0.0587851
0.0541479
0.0479296
0.0415651
0.0362564
0.0329049
0.0318314
0.031376
0.0290416
0.0256974
0.0246755
0.0265639
0.0277336
0.0262646
0.0251936
0.0269181
0.0285881
0.0278284
0.027264
0.0286626
0.0293305
0.0283057
0.0283057
0.0293305
0.0286626
0.0272639
0.0278283
0.0285881
0.0269181
0.0251936
0.0262647
0.0277337
0.0265639
0.0246757
0.0256978
0.0290419
0.0313762
0.0318314
0.032905
0.0362567
0.0415653
0.0479293
0.0541472
0.0587838
0.0619075
0.0650465
0.0701159
0.0780883
0.0863777
0.0910114
0.0912896
0.0889787
0.0844104
0.0763953
0.0633363
0.0462601
0.0310992
0.0243807
0.0288328
0.0426575
0.0609752
0.0794942
0.0969704
0.113607
0.129093
0.141479
0.146996
0.142243
0.125733
0.0981736
0.06225
0.0213126
0.0219482
0.0638598
0.0997213
0.126089
0.140844
0.143729
0.136787
0.12314
0.105386
0.0846901
0.0609739
0.0350718
0.0106936
-0.00637819
-0.0110392
-0.00307499
0.0121264
0.0275165
0.0387827
0.047457
0.056945
0.0673847
0.0751302
0.075965
0.0702619
0.0631939
0.0594678
0.0588626
0.0588501
0.0568593
0.0518478
0.0451826
0.0392631
0.0360241
0.0353845
0.0349623
0.032105
0.0283291
0.0273027
0.0292202
0.030034
0.0283256
0.0275186
0.0295085
0.0309359
0.0298841
0.0295475
0.031358
0.0319504
0.0305329
0.0305329
0.0319504
0.0313581
0.0295475
0.0298842
0.0309361
0.0295088
0.0275188
0.0283259
0.0300344
0.0292207
0.0273032
0.0283297
0.0321057
0.0349626
0.0353847
0.0360243
0.0392633
0.0451825
0.051847
0.0568579
0.0588482
0.0588605
0.0594658
0.063192
0.0702597
0.0759624
0.075127
0.0673811
0.0569419
0.0474552
0.0387823
0.0275169
0.0121267
-0.00307533
-0.0110399
-0.00637845
0.0106941
0.035073
0.0609752
0.0846909
0.105386
0.12314
0.136788
0.14373
0.140846
0.12609
0.0997228
0.0638608
0.0219486
0.0219781
0.0636626
0.0984509
0.122929
0.135537
0.136567
0.128565
0.114244
0.0950855
0.0714094
0.0426567
0.0106936
-0.0186428
-0.0383795
-0.0431796
-0.0342552
-0.0192582
-0.00544185
0.00440851
0.0139842
0.0283984
0.0469172
0.0631159
0.0709159
0.0699243
0.0655706
0.064149
0.0664409
0.0697706
0.0708988
0.0677571
0.0612109
0.0546246
0.0509014
0.0497356
0.0483043
0.0441509
0.0393227
0.0374161
0.0380767
0.0373852
0.0348321
0.0337902
0.0351839
0.0355873
0.0339692
0.0336285
0.0353557
0.0356182
0.0339523
0.0339523
0.0356183
0.0353559
0.0336288
0.0339695
0.0355878
0.0351846
0.0337908
0.0348328
0.0373861
0.0380778
0.0374172
0.0393238
0.0441519
0.0483051
0.0497362
0.0509019
0.0546249
0.0612107
0.067756
0.070897
0.0697685
0.0664387
0.0641469
0.0655683
0.0699217
0.0709128
0.0631125
0.0469137
0.0283955
0.0139826
0.0044083
-0.00544138
-0.0192579
-0.0342556
-0.0431806
-0.0383802
-0.0186429
0.0106942
0.0426575
0.0714099
0.0950855
0.114244
0.128565
0.136568
0.135538
0.122931
0.0984529
0.0636641
0.0219786
0.021025
0.0605468
0.0926552
0.114142
0.124087
0.123574
0.11553
0.102196
0.0839088
0.0598273
0.0288328
-0.00637819
-0.0383795
-0.0591628
-0.0633282
-0.0535055
-0.0390183
-0.0270997
-0.0190584
-0.00937777
0.00835478
0.0328171
0.0556926
0.0697108
0.0734669
0.0719799
0.0724512
0.076668
0.0822663
0.0858055
0.0843859
0.078046
0.0706753
0.0658625
0.0632277
0.0598187
0.0537805
0.0475632
0.0441853
0.0426009
0.0396161
0.0359142
0.0343098
0.0344644
0.0334099
0.0312285
0.0307372
0.0319283
0.0317425
0.0301157
0.0301157
0.0317426
0.0319286
0.0307376
0.0312289
0.0334105
0.0344653
0.0343107
0.0359151
0.0396173
0.0426024
0.0441866
0.0475643
0.0537814
0.0598195
0.0632283
0.0658628
0.0706752
0.0780452
0.0843843
0.0858034
0.0822642
0.0766661
0.0724495
0.071978
0.0734646
0.0697082
0.0556901
0.032815
0.00835322
-0.00937831
-0.0190578
-0.0270987
-0.0390177
-0.0535058
-0.0633294
-0.0591641
-0.0383802
-0.00637841
0.0288328
0.0598272
0.0839082
0.102195
0.11553
0.123575
0.124089
0.114144
0.0926572
0.0605483
0.0210255
0.0195086
0.0558131
0.0844702
0.1026
0.110066
0.108839
0.102093
0.0916153
0.0765182
0.0546356
0.0243811
-0.0110392
-0.0431796
-0.0633282
-0.0665819
-0.0568864
-0.0443688
-0.0359615
-0.0314319
-0.0238059
-0.00599566
0.0204643
0.0463944
0.0640677
0.07126
0.0721469
0.0738458
0.0789098
0.0856971
0.0910392
0.0915193
0.0861523
0.0787922
0.0732425
0.0690806
0.0635092
0.0557301
0.048445
0.0435832
0.0393641
0.0338819
0.0290721
0.026749
0.0253082
0.0227272
0.0201686
0.0194278
0.0197365
0.0191029
0.017836
0.017836
0.019103
0.0197369
0.0194283
0.0201691
0.0227279
0.0253092
0.02675
0.029073
0.033883
0.0393655
0.0435843
0.0484456
0.0557305
0.0635095
0.0690806
0.073242
0.0787911
0.0861506
0.091517
0.0910368
0.0856951
0.0789084
0.0738446
0.0721454
0.0712584
0.0640662
0.0463933
0.0204639
-0.00599546
-0.0238051
-0.0314303
-0.0359596
-0.0443675
-0.056886
-0.0665826
-0.0633294
-0.0431806
-0.0110399
0.0243807
0.054635
0.076517
0.091614
0.102092
0.108839
0.110066
0.102602
0.0844718
0.0558142
0.019509
0.0186114
0.0529771
0.0795086
0.0956086
0.101896
0.101074
0.0964515
0.0894827
0.0781702
0.0593094
0.0310996
-0.00307499
-0.0342552
-0.0535055
-0.0568864
-0.049228
-0.0406745
-0.0376966
-0.0384889
-0.0351585
-0.0206863
0.00356078
0.0285347
0.0468226
0.0558289
0.0585482
0.0610564
0.0664287
0.0740028
0.0811611
0.0843798
0.0817093
0.0764319
0.0719338
0.067575
0.0609622
0.0527384
0.0456734
0.0401953
0.0339151
0.0265601
0.0211349
0.0182289
0.015276
0.0114781
0.00883113
0.00782005
0.00711596
0.00612768
0.00544301
0.00544301
0.00612781
0.00711639
0.00782067
0.00883178
0.0114789
0.0152769
0.0182299
0.0211357
0.0265611
0.0339161
0.0401958
0.0456731
0.0527377
0.0609614
0.067574
0.0719321
0.0764294
0.0817063
0.0843768
0.0811583
0.0740008
0.0664276
0.0610554
0.058547
0.0558277
0.0468219
0.0285348
0.00356187
-0.0206847
-0.0351566
-0.0384865
-0.037694
-0.0406723
-0.0492266
-0.056886
-0.0535058
-0.0342556
-0.00307531
0.0310992
0.0593087
0.0781689
0.089481
0.0964498
0.101073
0.101895
0.095609
0.0795094
0.0529778
0.0186117
0.0194831
0.0553199
0.0827761
0.0993391
0.106189
0.106648
0.104155
0.0999212
0.0910953
0.0737888
0.0462598
0.0121264
-0.0192582
-0.0390183
-0.0443688
-0.0406745
-0.037674
-0.0411453
-0.0477052
-0.0491954
-0.0394329
-0.0195552
0.00212946
0.0191106
0.0290055
0.0335267
0.0370818
0.0429379
0.0513603
0.0604723
0.0672034
0.0690291
0.0682135
0.0670739
0.0644453
0.0585645
0.0516654
0.0463789
0.0414835
0.0342458
0.0260105
0.0204805
0.0171392
0.0129324
0.00826008
0.00561111
0.00425697
0.00255723
0.00126937
0.00115315
0.00115325
0.00126965
0.00255771
0.00425771
0.00561202
0.00826099
0.0129333
0.0171402
0.0204814
0.0260111
0.034246
0.0414831
0.0463778
0.0516637
0.0585626
0.064443
0.0670709
0.0682097
0.0690252
0.0671999
0.0604696
0.0513586
0.0429369
0.037081
0.0335256
0.0290045
0.0191103
0.0021303
-0.0195534
-0.0394307
-0.0491931
-0.0477027
-0.0411425
-0.0376712
-0.0406723
-0.0443675
-0.0390178
-0.0192579
0.0121267
0.0462601
0.0737886
0.0910945
0.0999197
0.104153
0.106646
0.106189
0.0993393
0.0827767
0.0553205
0.0194834
0.021975
0.0624076
0.0935867
0.112877
0.121728
0.123892
0.122846
0.119573
0.110812
0.0924817
0.0633358
0.0275165
-0.00544185
-0.0270997
-0.0359615
-0.0376966
-0.0411453
-0.0508394
-0.061962
-0.0668354
-0.0607869
-0.0450287
-0.0268311
-0.0114063
-0.000379465
0.00674694
0.0123
0.0193029
0.0286926
0.0395383
0.0497488
0.0568533
0.0618673
0.0655735
0.0660351
0.0622331
0.0578257
0.055122
0.0515039
0.0441539
0.0356671
0.0300105
0.0259993
0.0205248
0.0149095
0.0118567
0.00985733
0.00713408
0.00541546
0.00557263
0.00557288
0.00541596
0.00713463
0.00985814
0.0118579
0.0149105
0.0205256
0.0260001
0.0300112
0.0356672
0.0441533
0.0515026
0.05512
0.0578232
0.0622304
0.0660321
0.0655698
0.0618631
0.0568494
0.0497459
0.0395365
0.0286918
0.0193026
0.0122995
0.00674595
-0.000380431
-0.0114064
-0.0268301
-0.0450268
-0.0607849
-0.0668336
-0.0619602
-0.0508371
-0.0411425
-0.037694
-0.0359597
-0.0270988
-0.00544142
0.0275169
0.0633363
0.092482
0.110812
0.119572
0.122845
0.123891
0.121728
0.112878
0.093588
0.0624087
0.0219754
0.024675
0.0701535
0.105508
0.127926
0.13897
0.142612
0.14227
0.138689
0.128542
0.107919
0.0763954
0.0387827
0.00440851
-0.0190584
-0.0314319
-0.0384889
-0.0477052
-0.061962
-0.0753706
-0.081283
-0.0769413
-0.0641341
-0.0489667
-0.0350942
-0.0230659
-0.0133674
-0.00584979
0.00199122
0.0114552
0.0226067
0.0347113
0.0461103
0.0566692
0.0654226
0.0695901
0.0687707
0.0675624
0.0678342
0.0661051
0.0595898
0.0515499
0.0458512
0.0411309
0.0344786
0.0278021
0.023913
0.021031
0.0173047
0.0149679
0.0150186
0.015019
0.0149686
0.0173053
0.0210318
0.0239142
0.0278032
0.0344792
0.0411312
0.0458513
0.0515493
0.0595882
0.0661028
0.0678315
0.0675594
0.0687675
0.0695868
0.0654189
0.0566656
0.0461075
0.0347098
0.0226065
0.0114557
0.00199162
-0.00584995
-0.0133681
-0.0230666
-0.035094
-0.0489653
-0.0641321
-0.0769394
-0.0812815
-0.0753692
-0.0619602
-0.0477027
-0.0384865
-0.0314303
-0.0190579
0.00440828
0.0387823
0.0763953
0.107919
0.128542
0.138689
0.14227
0.142613
0.138971
0.127928
0.10551
0.0701552
0.0246757
0.0257241
0.0731322
0.11005
0.133717
0.145815
0.150473
0.150972
0.147701
0.137336
0.116144
0.0844118
0.047457
0.0139842
-0.00937777
-0.0238059
-0.0351585
-0.0491954
-0.0668354
-0.081283
-0.086925
-0.082988
-0.072315
-0.0599061
-0.0478432
-0.0355805
-0.0242007
-0.015484
-0.00770522
0.000345456
0.00951597
0.0207295
0.0338413
0.0479099
0.0603553
0.0677393
0.0699908
0.0719912
0.0751699
0.0757174
0.0708944
0.0640923
0.0588221
0.0537326
0.0461959
0.0385386
0.0337024
0.0299031
0.0252275
0.0221545
0.0218614
0.0218618
0.0221551
0.0252281
0.0299037
0.0337031
0.0385393
0.046196
0.0537321
0.0588211
0.0640906
0.0708917
0.0757141
0.0751665
0.0719878
0.0699875
0.067736
0.0603523
0.0479076
0.0338401
0.0207298
0.0095174
0.000347069
-0.00770428
-0.0154838
-0.0242009
-0.0355805
-0.0478422
-0.059904
-0.0723124
-0.0829858
-0.0869233
-0.0812815
-0.0668336
-0.0491931
-0.0351565
-0.0238051
-0.00937831
0.0139826
0.0474552
0.0844104
0.116143
0.137335
0.147701
0.150972
0.150474
0.145817
0.133719
0.110053
0.0731344
0.0257249
0.0243548
0.0690649
0.103659
0.125804
0.137378
0.142738
0.144871
0.143566
0.135504
0.117028
0.0889812
0.056945
0.0283984
0.00835478
-0.00599566
-0.0206863
-0.0394329
-0.0607869
-0.0769413
-0.082988
-0.0800786
-0.0723014
-0.0634776
-0.0542131
-0.043017
-0.0311596
-0.0219152
-0.0147265
-0.00896219
-0.00331906
0.00481938
0.0171311
0.0322893
0.0466457
0.0564415
0.0616392
0.0667854
0.0729195
0.0761865
0.0739739
0.0695742
0.065893
0.0613237
0.0535753
0.0455295
0.0402241
0.0357587
0.0302486
0.0265267
0.0259525
0.0259527
0.026527
0.0302489
0.0357589
0.040224
0.0455292
0.0535745
0.061322
0.0658905
0.069571
0.0739702
0.0761825
0.0729157
0.0667821
0.0616362
0.0564388
0.0466437
0.0322884
0.0171316
0.00482114
-0.00331664
-0.00896008
-0.0147255
-0.021915
-0.0311594
-0.0430162
-0.0542112
-0.0634746
-0.072298
-0.0800757
-0.0829858
-0.0769394
-0.0607849
-0.0394306
-0.0206846
-0.00599543
0.00835323
0.0283955
0.0569419
0.0889787
0.117026
0.135503
0.143566
0.144871
0.142739
0.13738
0.125806
0.103661
0.0690669
0.0243556
0.0216152
0.0610478
0.09118
0.110244
0.120326
0.125966
0.129779
0.131034
0.126575
0.112877
0.0912925
0.0673847
0.0469172
0.0328171
0.0204643
0.00356078
-0.0195552
-0.0450287
-0.0641341
-0.072315
-0.0723014
-0.0691354
-0.065285
-0.0601727
-0.051517
-0.0403474
-0.0309367
-0.0242128
-0.0204114
-0.0181734
-0.0137011
-0.0036265
0.0108264
0.0256899
0.0371827
0.0452055
0.0536127
0.0629617
0.069346
0.0705968
0.0700383
0.0695838
0.0668206
0.059963
0.0527406
0.0480123
0.0434149
0.0373518
0.0333582
0.0328525
0.0328524
0.0333581
0.0373517
0.0434145
0.0480111
0.0527388
0.0599608
0.0668177
0.06958
0.0700339
0.0705925
0.0693422
0.0629583
0.0536098
0.0452033
0.0371812
0.0256893
0.0108271
-0.00362462
-0.0136986
-0.018171
-0.0204098
-0.0242122
-0.0309367
-0.040347
-0.0515155
-0.06017
-0.0652815
-0.0691316
-0.072298
-0.0723124
-0.0641321
-0.0450268
-0.0195534
0.00356189
0.0204639
0.032815
0.0469137
0.0673811
0.0912896
0.112875
0.126574
0.131034
0.129779
0.125966
0.120326
0.110245
0.0911817
0.0610492
0.0216158
0.0193821
0.0545608
0.0810763
0.0975757
0.106311
0.111798
0.116335
0.118897
0.116676
0.106689
0.0910138
0.0751302
0.0631159
0.0556926
0.0463944
0.0285347
0.00212946
-0.0268311
-0.0489667
-0.0599061
-0.0634776
-0.065285
-0.0665385
-0.0659098
-0.0604131
-0.0504896
-0.0409429
-0.0341381
-0.0312063
-0.0312528
-0.030153
-0.0231223
-0.0108281
0.00295839
0.014732
0.0246558
0.0358154
0.0479277
0.0569563
0.0617505
0.0659141
0.0698797
0.0700139
0.0653235
0.0604466
0.0575367
0.0535266
0.0474885
0.0438593
0.0438682
0.0438678
0.0438583
0.0474875
0.0535252
0.0575342
0.0604432
0.0653198
0.0700099
0.069875
0.0659091
0.0617463
0.0569532
0.0479252
0.0358134
0.0246547
0.0147318
0.00295914
-0.0108263
-0.0231196
-0.0301502
-0.0312507
-0.0312053
-0.0341379
-0.0409427
-0.0504886
-0.0604109
-0.0659065
-0.0665347
-0.0652815
-0.0634746
-0.059904
-0.0489653
-0.0268301
0.00213027
0.0285348
0.0463933
0.05569
0.0631124
0.0751269
0.0910114
0.106688
0.116676
0.118897
0.116335
0.111798
0.106311
0.0975766
0.0810773
0.0545616
0.0193824
0.0188807
0.053134
0.0788104
0.0946592
0.102894
0.107748
0.111316
0.112496
0.109104
0.0993336
0.0863793
0.075965
0.0709159
0.0697108
0.0640677
0.0468226
0.0191106
-0.0114063
-0.0350942
-0.0478432
-0.0542131
-0.0601727
-0.0659098
-0.0694808
-0.0672488
-0.0589795
-0.0494876
-0.0421074
-0.0387563
-0.0395219
-0.0406688
-0.0363751
-0.0267373
-0.015247
-0.00467352
0.00601614
0.0190529
0.0328526
0.0433923
0.051126
0.059951
0.0685368
0.0721721
0.0708997
0.0697881
0.0697421
0.0671719
0.0621278
0.0596372
0.0604651
0.0604644
0.0596355
0.0621256
0.0671691
0.0697382
0.0697832
0.0708946
0.0721672
0.0685319
0.0599463
0.0511225
0.0433904
0.0328515
0.0190522
0.00601622
-0.00467228
-0.0152448
-0.0267345
-0.036372
-0.040666
-0.0395201
-0.0387557
-0.0421073
-0.049487
-0.0589778
-0.0672461
-0.0694775
-0.0659065
-0.06017
-0.0542112
-0.0478422
-0.0350941
-0.0114065
0.0191103
0.0468219
0.0640662
0.0697082
0.0709128
0.0759623
0.0863777
0.0993332
0.109104
0.112497
0.111316
0.107748
0.102895
0.09466
0.0788114
0.0531348
0.018881
0.0196113
0.0553425
0.0823852
0.0993702
0.108153
0.112402
0.113918
0.111582
0.104148
0.0914744
0.0780895
0.0702619
0.0699243
0.0734669
0.07126
0.0558289
0.0290055
-0.000379465
-0.0230659
-0.0355805
-0.043017
-0.051517
-0.0604131
-0.0672488
-0.0681473
-0.0623026
-0.0538339
-0.0464145
-0.0425312
-0.0433571
-0.0458279
-0.043711
-0.0369604
-0.0288006
-0.0206787
-0.0102911
0.0034897
0.0176333
0.0285299
0.0383823
0.0510077
0.0635605
0.0710013
0.0743685
0.0781944
0.0818741
0.0818968
0.0792908
0.0787975
0.0805427
0.0805419
0.0787952
0.0792873
0.0818924
0.081869
0.0781886
0.0743625
0.070996
0.0635562
0.0510043
0.0383801
0.0285292
0.0176336
0.00349033
-0.01029
-0.0206765
-0.0287975
-0.0369569
-0.043708
-0.0458256
-0.0433557
-0.0425308
-0.0464141
-0.0538327
-0.0623004
-0.0681445
-0.0672461
-0.0604109
-0.0515155
-0.0430162
-0.0355805
-0.0230667
-0.000380489
0.0290044
0.0558277
0.0712584
0.0734647
0.0699217
0.0702597
0.0780883
0.0914744
0.104149
0.111583
0.113919
0.112403
0.108154
0.0993714
0.0823865
0.0553435
0.0196117
0.0201557
0.0570555
0.0853979
0.103752
0.113558
0.117845
0.117929
0.112505
0.101097
0.0850536
0.0701171
0.0631939
0.0655706
0.0719799
0.0721469
0.0585482
0.0335267
0.00674694
-0.0133674
-0.0242007
-0.0311596
-0.0403474
-0.0504896
-0.0589795
-0.0623026
-0.0592137
-0.0526189
-0.0461443
-0.0424471
-0.043365
-0.0465855
-0.0462622
-0.0426134
-0.0384414
-0.0335484
-0.0244568
-0.0112696
0.00193896
0.0123357
0.023364
0.0382566
0.0534435
0.0645321
0.0731975
0.0824766
0.0904128
0.09424
0.0955759
0.0978034
0.100401
0.1004
0.0978007
0.0955713
0.0942344
0.0904069
0.0824705
0.0731915
0.064527
0.0534401
0.0382548
0.0233633
0.0123359
0.00194008
-0.011268
-0.0244547
-0.0335456
-0.0384378
-0.0426097
-0.0462594
-0.0465838
-0.0433642
-0.0424467
-0.0461438
-0.0526176
-0.0592116
-0.0623004
-0.0589778
-0.0504886
-0.040347
-0.0311594
-0.0242009
-0.0133681
0.0067459
0.0335256
0.0585471
0.0721455
0.071978
0.0655683
0.063192
0.0701159
0.0850535
0.101098
0.112506
0.11793
0.117846
0.113559
0.103753
0.0853994
0.0570567
0.0201561
0.0195136
0.0554244
0.0834572
0.102301
0.113098
0.118146
0.118096
0.111355
0.0979058
0.0802596
0.0650478
0.0594678
0.064149
0.0724512
0.0738458
0.0610564
0.0370818
0.0123
-0.00584979
-0.015484
-0.0219152
-0.0309367
-0.0409429
-0.0494876
-0.0538339
-0.0526189
-0.0476361
-0.0423625
-0.0391162
-0.0398856
-0.0432035
-0.0442023
-0.0434559
-0.0432336
-0.0418459
-0.0349471
-0.023595
-0.0122414
-0.00290604
0.00829255
0.0237196
0.0399485
0.0538742
0.0674297
0.081788
0.0940595
0.10249
0.1087
0.114005
0.117355
0.117354
0.114003
0.108696
0.102484
0.0940535
0.0817825
0.0674248
0.0538703
0.0399465
0.0237193
0.0082931
-0.00290508
-0.0122398
-0.0235926
-0.0349442
-0.0418424
-0.0432298
-0.0434523
-0.0441998
-0.0432024
-0.0398854
-0.0391163
-0.0423622
-0.0476351
-0.0526176
-0.0538327
-0.049487
-0.0409428
-0.0309367
-0.021915
-0.0154838
-0.00585
0.0122994
0.037081
0.0610555
0.0738447
0.0724495
0.064147
0.0594658
0.0650465
0.0802593
0.0979064
0.111356
0.118097
0.118147
0.113099
0.102302
0.0834585
0.0554254
0.019514
0.0180031
0.051309
0.0777105
0.0961393
0.107565
0.113525
0.114018
0.107169
0.0932181
0.0757169
0.0619089
0.0588626
0.0664409
0.076668
0.0789098
0.0664287
0.0429379
0.0193029
0.00199122
-0.00770522
-0.0147265
-0.0242128
-0.0341381
-0.0421074
-0.0464145
-0.0461443
-0.0423625
-0.0382992
-0.0356044
-0.0361054
-0.0391219
-0.0409744
-0.0426008
-0.0458815
-0.047961
-0.0437819
-0.0348887
-0.0256844
-0.017541
-0.0066484
0.00845365
0.0247761
0.0405205
0.0578468
0.0764658
0.0929012
0.106102
0.117256
0.125604
0.129709
0.129709
0.125602
0.117252
0.106097
0.0928961
0.0764617
0.0578437
0.0405184
0.0247753
0.00845428
-0.00664706
-0.0175395
-0.0256823
-0.0348858
-0.0437783
-0.0479572
-0.0458778
-0.0425978
-0.0409729
-0.0391218
-0.0361062
-0.0356053
-0.0382996
-0.0423622
-0.0461438
-0.0464142
-0.0421074
-0.034138
-0.0242123
-0.0147255
-0.0077043
0.0019916
0.0193026
0.042937
0.0664277
0.0789085
0.0766662
0.0664387
0.0588605
0.0619075
0.0757165
0.0932185
0.10717
0.114019
0.113526
0.107565
0.0961402
0.0777114
0.0513098
0.0180034
0.0164913
0.047176
0.0718682
0.0896812
0.101406
0.107853
0.108517
0.101459
0.087248
0.0704799
0.0587851
0.0588501
0.0697706
0.0822663
0.0856971
0.0740028
0.0513603
0.0286926
0.0114552
0.000345456
-0.00896219
-0.0204114
-0.0312063
-0.0387563
-0.0425312
-0.0424471
-0.0391162
-0.0356044
-0.0329824
-0.0327272
-0.0346987
-0.0365412
-0.0397188
-0.0459114
-0.0512736
-0.050075
-0.0440564
-0.0374248
-0.0308565
-0.0205444
-0.00594975
0.00992971
0.0262013
0.0456138
0.0672134
0.0870224
0.104116
0.119203
0.130036
0.134868
0.134868
0.130035
0.119201
0.104113
0.0870194
0.0672112
0.0456128
0.0262012
0.0099301
-0.00594881
-0.0205428
-0.0308545
-0.0374223
-0.0440532
-0.0500714
-0.05127
-0.0459084
-0.0397172
-0.0365413
-0.0347003
-0.0327293
-0.0329841
-0.0356053
-0.0391163
-0.0424468
-0.0425308
-0.0387557
-0.0312053
-0.0204098
-0.00896009
0.000347073
0.0114557
0.0286918
0.0513586
0.0740008
0.0856951
0.0822642
0.0697685
0.0588482
0.0587838
0.0704797
0.0872486
0.10146
0.108518
0.107854
0.101407
0.0896819
0.0718689
0.0471766
0.0164916
0.0155515
0.0446623
0.068459
0.086106
0.0981413
0.104676
0.104781
0.0966069
0.0812171
0.0643762
0.0541479
0.0568593
0.0708988
0.0858055
0.0910392
0.0811611
0.0604723
0.0395383
0.0226067
0.00951597
-0.00331906
-0.0181734
-0.0312528
-0.0395219
-0.0433571
-0.043365
-0.0398856
-0.0361054
-0.0327272
-0.0306649
-0.0301458
-0.0303775
-0.0335201
-0.0411788
-0.0487164
-0.0499305
-0.0467052
-0.0429669
-0.0383452
-0.028649
-0.0143549
0.000830413
0.0164954
0.0363376
0.0593154
0.0809141
0.100034
0.117232
0.129478
0.134762
0.134762
0.129478
0.117232
0.100035
0.0809141