/*--------------------------------*- C++ -*----------------------------------*\
  =========                 |
  \\      /  F ield         | OpenFOAM: The Open Source CFD Toolbox
   \\    /   O peration     | Website:  https://openfoam.org
    \\  /    A nd           | Version:  10
     \\/     M anipulation  |
\*---------------------------------------------------------------------------*/
FoamFile
{
    format      ascii;
    class       volScalarField;
    location    "44";
    object      h_0;
}
// * * * * * * * * * * * * * * * * * * * * * * * * * * * * * * * * * * * * * //

dimensions      [0 1 0 0 0 0 0];

internalField   nonuniform List<scalar> 
10000
(
0.00245267
0.00729764
0.0119467
0.0160748
0.0192583
0.021184
0.0217756
0.0214365
0.0208743
0.0207131
0.0211636
0.0218062
0.0218597
0.0209323
0.0194261
0.0185172
0.0193677
0.0218546
0.0245848
0.0256927
0.0243785
0.0216628
0.0194187
0.0188996
0.0196333
0.0202042
0.0195948
0.0181011
0.0165901
0.0156452
0.0152522
0.0149418
0.0144118
0.0135141
0.0124589
0.0116247
0.0113538
0.0112234
0.0106276
0.00968183
0.00917879
0.00923131
0.00908522
0.0084522
0.00800662
0.00808023
0.00807616
0.00772739
0.00756052
0.00772839
0.00772839
0.00756051
0.00772738
0.00807614
0.0080802
0.00800658
0.00845218
0.0090852
0.00923127
0.00917874
0.00968181
0.0106277
0.0112234
0.0113538
0.0116247
0.0124589
0.0135141
0.0144119
0.0149419
0.0152524
0.0156453
0.0165903
0.0181014
0.0195952
0.0202047
0.0196337
0.0188999
0.0194191
0.0216633
0.0243793
0.0256935
0.0245854
0.021855
0.0193679
0.0185174
0.0194265
0.0209328
0.0218602
0.0218065
0.0211638
0.0207132
0.0208744
0.0214365
0.0217758
0.0211841
0.0192584
0.0160748
0.0119466
0.00729758
0.00245263
0.00729764
0.0217145
0.0355467
0.047833
0.0572931
0.0629553
0.0645979
0.0634183
0.0615031
0.060761
0.061848
0.063476
0.0633435
0.0602983
0.0555917
0.0527196
0.0549973
0.0620679
0.0698979
0.0730414
0.0691283
0.0611762
0.0546545
0.0531715
0.055383
0.0571674
0.0556275
0.0515595
0.0474269
0.0448973
0.0439751
0.0433308
0.0420351
0.0396677
0.0368231
0.0346307
0.0340138
0.0337734
0.032192
0.0296381
0.0283154
0.028532
0.0281777
0.026461
0.0252613
0.0255021
0.0255158
0.0245577
0.0241059
0.0245865
0.0245865
0.0241059
0.0245577
0.0255157
0.025502
0.0252613
0.026461
0.0281776
0.0285319
0.0283153
0.0296381
0.0321921
0.0337734
0.0340138
0.0346307
0.0368233
0.0396679
0.0420353
0.0433311
0.0439755
0.0448978
0.0474275
0.0515603
0.0556285
0.0571685
0.055384
0.0531723
0.0546553
0.0611775
0.0691303
0.0730436
0.0698996
0.0620689
0.0549979
0.0527203
0.0555928
0.0602998
0.0633449
0.063477
0.0618484
0.060761
0.0615032
0.0634186
0.0645985
0.062956
0.0572937
0.0478332
0.0355467
0.0217143
0.00729757
0.0119467
0.0355467
0.0581031
0.0780305
0.0932802
0.102242
0.104612
0.102332
0.0986899
0.0967795
0.0976357
0.0992065
0.0980293
0.0923328
0.0841773
0.0791456
0.0822968
0.0930683
0.105109
0.109896
0.103736
0.0913486
0.0811824
0.0788194
0.0823875
0.0854989
0.0836904
0.0780131
0.0721672
0.0687294
0.0678337
0.0674914
0.0661217
0.0630752
0.0592643
0.0565001
0.0560336
0.056054
0.0540365
0.0506361
0.0489989
0.0495341
0.0491951
0.0468907
0.045313
0.0457775
0.0458758
0.0445481
0.0439454
0.0446775
0.0446775
0.0439454
0.044548
0.0458757
0.0457774
0.0453129
0.0468907
0.0491951
0.049534
0.0489988
0.0506361
0.0540366
0.0560541
0.0560336
0.0565002
0.0592646
0.0630756
0.066122
0.0674918
0.0678343
0.06873
0.0721679
0.078014
0.0836916
0.0855004
0.0823887
0.0788204
0.0811834
0.0913503
0.103738
0.109899
0.105111
0.0930695
0.0822974
0.0791464
0.0841788
0.0923348
0.0980312
0.0992079
0.0976363
0.0967797
0.0986902
0.102333
0.104614
0.102243
0.0932814
0.0780312
0.0581034
0.0355467
0.0119466
0.0160748
0.047833
0.0780305
0.104506
0.124596
0.136109
0.138739
0.135054
0.129303
0.125581
0.12521
0.125586
0.12253
0.113846
0.102314
0.095205
0.0987601
0.112225
0.127404
0.133482
0.125844
0.110385
0.0976256
0.0945748
0.0992621
0.103751
0.102453
0.0963762
0.0899123
0.0862992
0.0859176
0.0864327
0.0856438
0.08272
0.0788234
0.0762897
0.0763821
0.0769
0.0749838
0.0715765
0.0701395
0.0710302
0.0708592
0.0685152
0.0669789
0.0676598
0.0678577
0.0664327
0.0658326
0.0667187
0.0667187
0.0658326
0.0664326
0.0678576
0.0676599
0.0669789
0.0685152
0.0708593
0.0710302
0.0701395
0.0715766
0.0749839
0.0769001
0.0763822
0.0762899
0.0788237
0.0827204
0.0856442
0.0864331
0.0859182
0.0862998
0.089913
0.0963771
0.102454
0.103753
0.0992633
0.0945756
0.0976264
0.110386
0.125846
0.133484
0.127406
0.112225
0.0987603
0.0952053
0.102316
0.113848
0.122532
0.125587
0.125211
0.125582
0.129304
0.135055
0.138741
0.136111
0.124597
0.104507
0.0780312
0.0478332
0.0160748
0.0192583
0.0572931
0.0932802
0.124596
0.148075
0.161056
0.163318
0.157921
0.149864
0.144011
0.141873
0.140479
0.135259
0.12389
0.109839
0.101497
0.105557
0.120983
0.138345
0.145483
0.137332
0.120376
0.10625
0.102672
0.107886
0.113389
0.113085
0.107646
0.101486
0.0981817
0.0984382
0.0999668
0.100057
0.0977513
0.0943807
0.0925685
0.0932776
0.0941777
0.0926206
0.0897898
0.0888269
0.0898539
0.0897735
0.0877481
0.0865337
0.0872838
0.0874724
0.0861394
0.0856497
0.0865616
0.0865616
0.0856498
0.0861394
0.0874725
0.087284
0.0865339
0.0877482
0.0897737
0.0898542
0.0888272
0.0897901
0.0926209
0.094178
0.0932779
0.0925689
0.0943812
0.0977518
0.100058
0.0999673
0.0984388
0.0981824
0.101487
0.107647
0.113086
0.11339
0.107887
0.102673
0.10625
0.120377
0.137334
0.145485
0.138346
0.120984
0.105556
0.101496
0.109839
0.123891
0.135261
0.14048
0.141874
0.144011
0.149864
0.157923
0.163321
0.161059
0.148077
0.124597
0.0932813
0.0572937
0.0192584
0.021184
0.0629553
0.102242
0.136109
0.161056
0.174246
0.175638
0.168593
0.158611
0.150868
0.146861
0.143576
0.136469
0.123514
0.108696
0.100701
0.105992
0.123088
0.141903
0.150039
0.142577
0.125893
0.111611
0.107397
0.111994
0.117521
0.117969
0.113451
0.107792
0.104586
0.104862
0.10675
0.107288
0.10544
0.102652
0.101489
0.102398
0.103157
0.101856
0.099805
0.0993113
0.100077
0.0998317
0.0982668
0.0975027
0.0981077
0.0981125
0.0969775
0.0966576
0.0974646
0.0974647
0.0966577
0.0969775
0.0981126
0.098108
0.097503
0.098267
0.099832
0.100078
0.0993118
0.0998054
0.101857
0.103158
0.102398
0.101489
0.102652
0.10544
0.107289
0.106751
0.104863
0.104587
0.107793
0.113451
0.117969
0.117522
0.111995
0.107398
0.111612
0.125893
0.142578
0.150041
0.141904
0.123088
0.105991
0.1007
0.108696
0.123515
0.13647
0.143577
0.146861
0.150869
0.158612
0.168594
0.17564
0.174249
0.161059
0.136111
0.102243
0.062956
0.0211841
0.0217756
0.0645979
0.104612
0.138739
0.163318
0.175638
0.175857
0.167454
0.156197
0.147117
0.141592
0.136868
0.128665
0.115618
0.102044
0.0961277
0.103526
0.12205
0.141542
0.150484
0.144622
0.129609
0.11607
0.110908
0.113454
0.117532
0.117826
0.113855
0.108392
0.104648
0.103883
0.104936
0.104992
0.102991
0.100446
0.0994629
0.0998746
0.0997785
0.098393
0.0970171
0.0967941
0.096877
0.0961523
0.0950277
0.0947151
0.0949667
0.0946206
0.0937376
0.093604
0.0941852
0.0941853
0.0936041
0.0937377
0.0946207
0.094967
0.0947153
0.0950279
0.0961527
0.0968775
0.0967946
0.0970175
0.0983935
0.0997792
0.0998754
0.0994637
0.100447
0.102992
0.104993
0.104937
0.103885
0.10465
0.108393
0.113856
0.117827
0.117533
0.113455
0.110909
0.11607
0.129609
0.144622
0.150485
0.141542
0.122049
0.103524
0.096126
0.102043
0.115618
0.128665
0.136868
0.141592
0.147117
0.156197
0.167455
0.175858
0.17564
0.163321
0.138741
0.104614
0.0645985
0.0217758
0.0214365
0.0634183
0.102332
0.135054
0.157921
0.168593
0.167454
0.158047
0.14613
0.136199
0.12942
0.123436
0.114532
0.102433
0.0916798
0.0892566
0.0994033
0.118895
0.138063
0.147272
0.143326
0.130862
0.118662
0.112156
0.111191
0.112153
0.111094
0.107003
0.101349
0.0965071
0.0938239
0.0929733
0.0917234
0.0891084
0.0865914
0.085481
0.0849546
0.0836272
0.0819957
0.0812617
0.081236
0.0805103
0.0792221
0.0785809
0.0787438
0.0785803
0.0778624
0.0773293
0.0773981
0.0776586
0.0776586
0.0773981
0.0773293
0.0778625
0.0785805
0.078744
0.078581
0.0792223
0.0805107
0.0812364
0.081262
0.0819961
0.0836279
0.0849554
0.0854818
0.0865922
0.0891092
0.0917245
0.0929745
0.0938252
0.0965083
0.10135
0.107004
0.111095
0.112155
0.111192
0.112157
0.118662
0.130862
0.143326
0.147272
0.138063
0.118894
0.0994018
0.0892548
0.0916784
0.102432
0.114532
0.123436
0.129419
0.136199
0.14613
0.158047
0.167455
0.168594
0.157923
0.135055
0.102333
0.0634186
0.0214365
0.0208743
0.0615031
0.0986899
0.129303
0.149864
0.158611
0.156197
0.14613
0.13379
0.122819
0.114103
0.10588
0.0955713
0.0843248
0.0767441
0.0781169
0.0907904
0.110377
0.128145
0.137084
0.135376
0.126494
0.116564
0.108927
0.103929
0.100882
0.0977252
0.0930984
0.0871864
0.0811755
0.0762668
0.0729288
0.0698969
0.0665324
0.0640805
0.062851
0.0613614
0.0589089
0.0571825
0.0572517
0.0575785
0.0563049
0.0547239
0.0547811
0.0555341
0.055089
0.0541946
0.0542019
0.0545137
0.0543931
0.0543931
0.0545136
0.0542019
0.0541946
0.055089
0.0555341
0.054781
0.054724
0.0563051
0.0575786
0.0572517
0.0571826
0.0589093
0.061362
0.0628515
0.0640809
0.066533
0.0698978
0.0729299
0.0762678
0.0811764
0.087187
0.0930988
0.0977257
0.100883
0.10393
0.108928
0.116564
0.126493
0.135376
0.137084
0.128145
0.110376
0.0907894
0.0781155
0.0767429
0.0843241
0.0955713
0.10588
0.114103
0.122818
0.133789
0.14613
0.156197
0.158612
0.149864
0.129304
0.0986903
0.0615032
0.0208744
0.0207131
0.060761
0.0967795
0.125581
0.144011
0.150868
0.147117
0.136199
0.122819
0.10974
0.0976044
0.0853741
0.0721008
0.0604415
0.0550593
0.0594898
0.073779
0.0923866
0.107852
0.116153
0.117077
0.112928
0.106723
0.0993314
0.0914269
0.0849565
0.0801202
0.0755807
0.0703805
0.0642958
0.0580349
0.0526987
0.0482168
0.0445874
0.0426522
0.0416947
0.0396295
0.0365219
0.0350303
0.0360626
0.0368888
0.0354236
0.0339355
0.0348424
0.0361756
0.0355697
0.0347421
0.0354313
0.0359694
0.0354159
0.0354159
0.0359694
0.0354312
0.0347421
0.0355696
0.0361755
0.0348423
0.0339354
0.0354236
0.0368888
0.0360625
0.0350303
0.0365222
0.03963
0.0416949
0.0426523
0.0445877
0.0482174
0.0526993
0.0580354
0.064296
0.0703803
0.0755803
0.08012
0.0849564
0.0914269
0.0993311
0.106722
0.112926
0.117075
0.116153
0.107852
0.0923869
0.0737787
0.059489
0.0550586
0.0604413
0.0721012
0.0853748
0.0976048
0.10974
0.122818
0.136199
0.147117
0.150869
0.144011
0.125582
0.0967797
0.060761
0.0207131
0.0211636
0.061848
0.0976357
0.12521
0.141873
0.146861
0.141592
0.12942
0.114103
0.0976044
0.080256
0.0618321
0.0435317
0.0296175
0.0249768
0.0314913
0.0465226
0.06356
0.0766346
0.0846493
0.0891658
0.0914223
0.0911266
0.0864761
0.078133
0.0700572
0.0648667
0.061662
0.0585361
0.0539097
0.0476922
0.0413252
0.0359914
0.0325967
0.0315038
0.031079
0.0287859
0.0254311
0.0243573
0.026229
0.027436
0.0259865
0.0248842
0.0265777
0.0282592
0.027521
0.0269466
0.0283192
0.0289881
0.027985
0.027985
0.0289881
0.0283192
0.0269465
0.0275209
0.0282592
0.0265777
0.0248842
0.0259865
0.0274361
0.026229
0.0243574
0.0254315
0.0287863
0.0310791
0.0315038
0.0325968
0.0359917
0.0413254
0.047692
0.0539089
0.0585349
0.0616606
0.0648655
0.070056
0.0781318
0.0864745
0.0911242
0.0914194
0.0891633
0.0846479
0.0766345
0.0635605
0.0465229
0.0314909
0.0249763
0.0296175
0.0435325
0.0618334
0.080257
0.0976048
0.114103
0.129419
0.141592
0.146861
0.141874
0.125211
0.0976364
0.0618483
0.0211637
0.0218062
0.063476
0.0992065
0.125586
0.140479
0.143576
0.136868
0.123436
0.10588
0.0853741
0.0618321
0.0360499
0.0116778
-0.00551715
-0.0103821
-0.00259957
0.0125204
0.0279137
0.0391806
0.047781
0.0571364
0.0674693
0.0751966
0.0760437
0.0702969
0.063098
0.0591975
0.058469
0.0584181
0.0564356
0.051435
0.0447719
0.0388167
0.0355193
0.0348621
0.0344916
0.0316909
0.027906
0.0268359
0.0287565
0.0296211
0.0279323
0.0271006
0.0290785
0.0305283
0.0294918
0.0291463
0.0309461
0.031544
0.0301373
0.0301373
0.0315441
0.0309462
0.0291463
0.0294919
0.0305285
0.0290788
0.0271009
0.0279326
0.0296215
0.028757
0.0268364
0.0279066
0.0316916
0.0344919
0.0348623
0.0355195
0.0388169
0.0447718
0.0514342
0.0564342
0.0584162
0.058467
0.0591956
0.063096
0.0702947
0.076041
0.0751934
0.0674656
0.0571333
0.0477792
0.0391802
0.0279141
0.0125207
-0.00259993
-0.0103828
-0.00551738
0.0116783
0.0360511
0.0618334
0.0853749
0.10588
0.123436
0.136868
0.143577
0.14048
0.125587
0.0992079
0.0634769
0.0218065
0.0218597
0.0633435
0.0980293
0.12253
0.135259
0.136469
0.128665
0.114532
0.0955713
0.0721008
0.0435317
0.0116778
-0.0176962
-0.0376125
-0.0426424
-0.0338831
-0.0189196
-0.00505199
0.00479912
0.0142573
0.0284918
0.0468765
0.0630722
0.0709297
0.0699273
0.0654484
0.063837
0.0659724
0.0692381
0.0703784
0.0672675
0.0607413
0.0541262
0.0503472
0.0491772
0.0478218
0.0437424
0.0389181
0.0369912
0.0376821
0.0370547
0.0345246
0.0334709
0.0348763
0.0353144
0.0337068
0.0333592
0.0350918
0.0353653
0.0336997
0.0336997
0.0353654
0.035092
0.0333594
0.033707
0.0353149
0.034877
0.0334715
0.0345253
0.0370556
0.0376832
0.0369922
0.0389191
0.0437433
0.0478226
0.0491778
0.0503477
0.0541266
0.060741
0.0672664
0.0703766
0.069236
0.0659702
0.0638349
0.0654462
0.0699247
0.0709266
0.0630687
0.046873
0.0284889
0.0142557
0.00479892
-0.00505152
-0.0189193
-0.0338835
-0.0426434
-0.0376132
-0.0176962
0.0116784
0.0435325
0.0721012
0.0955714
0.114532
0.128665
0.13647
0.135261
0.122532
0.0980312
0.0633449
0.0218602
0.0209323
0.0602983
0.0923328
0.113846
0.12389
0.123514
0.115618
0.102433
0.0843248
0.0604415
0.0296175
-0.00551715
-0.0376125
-0.0586323
-0.0630515
-0.0533776
-0.0388771
-0.0268554
-0.0187912
-0.00922743
0.00832851
0.0326755
0.0555953
0.0697389
0.0735465
0.0719815
0.0722906
0.0763446
0.0818595
0.0854068
0.0840276
0.0777155
0.0703172
0.065447
0.0628094
0.0594784
0.0535105
0.0473007
0.0439202
0.0423836
0.0394637
0.0357803
0.034172
0.0343568
0.0333449
0.0311663
0.0306669
0.0318767
0.031706
0.0300696
0.0300696
0.0317061
0.0318771
0.0306672
0.0311666
0.0333455
0.0343577
0.0341728
0.0357812
0.0394649
0.042385
0.0439215
0.0473017
0.0535114
0.0594792
0.06281
0.0654474
0.070317
0.0777148
0.084026
0.0854046
0.0818574
0.0763428
0.0722888
0.0719796
0.0735442
0.0697364
0.0555927
0.0326734
0.00832694
-0.00922798
-0.0187906
-0.0268544
-0.0388765
-0.0533779
-0.0630527
-0.0586336
-0.0376132
-0.00551734
0.0296176
0.0604413
0.0843242
0.102432
0.115618
0.123515
0.123891
0.113848
0.0923348
0.0602998
0.0209328
0.0194261
0.0555917
0.0841773
0.102314
0.109839
0.108696
0.102044
0.0916798
0.0767441
0.0550593
0.0249768
-0.0103821
-0.0426424
-0.0630515
-0.0665598
-0.0569819
-0.0443996
-0.0358379
-0.0312512
-0.0237165
-0.00605328
0.0203316
0.0463563
0.0642161
0.0715273
0.0724018
0.0739886
0.0788999
0.0855871
0.0909202
0.0914317
0.0860814
0.0786829
0.0730669
0.0688884
0.0633711
0.0556344
0.0483448
0.043486
0.039319
0.0338889
0.0290825
0.0267548
0.025356
0.0228188
0.0202511
0.0194982
0.0198361
0.0192193
0.0179322
0.0179321
0.0192194
0.0198364
0.0194986
0.0202516
0.0228195
0.025357
0.0267558
0.0290834
0.0338901
0.0393204
0.0434872
0.0483454
0.0556347
0.0633714
0.0688884
0.0730664
0.0786818
0.0860797
0.0914294
0.0909178
0.0855851
0.0788985
0.0739874
0.0724003
0.0715257
0.0642146
0.0463551
0.0203313
-0.0060531
-0.0237156
-0.0312496
-0.0358361
-0.0443982
-0.0569815
-0.0665605
-0.0630527
-0.0426434
-0.0103827
0.0249763
0.0550586
0.0767429
0.0916785
0.102043
0.108696
0.10984
0.102316
0.0841788
0.0555928
0.0194265
0.0185172
0.0527196
0.0791456
0.095205
0.101497
0.100701
0.0961277
0.0892566
0.0781169
0.0594898
0.0314913
-0.00259957
-0.0338831
-0.0533776
-0.0569819
-0.0493882
-0.0407192
-0.0375522
-0.0382654
-0.0350075
-0.020658
0.00354707
0.0286408
0.0471414
0.0563079
0.0590655
0.0615094
0.066745
0.0742008
0.0813159
0.084533
0.0818454
0.0765053
0.0719252
0.067524
0.060922
0.0526938
0.0455991
0.0401198
0.0338888
0.0265661
0.0211238
0.0182109
0.0153102
0.0115543
0.00888607
0.00786149
0.00719821
0.00622731
0.00551096
0.00551096
0.00622745
0.00719863
0.0078621
0.00888672
0.0115551
0.0153112
0.0182119
0.0211247
0.026567
0.0338898
0.0401203
0.0455989
0.0526932
0.0609213
0.067523
0.0719235
0.0765028
0.0818424
0.0845299
0.0813131
0.0741989
0.0667439
0.0615084
0.0590643
0.0563067
0.0471406
0.0286409
0.00354816
-0.0206563
-0.0350056
-0.038263
-0.0375496
-0.040717
-0.0493867
-0.0569815
-0.0533779
-0.0338836
-0.0025999
0.031491
0.0594891
0.0781156
0.0892549
0.0961261
0.1007
0.101496
0.0952054
0.0791464
0.0527203
0.0185174
0.0193677
0.0549973
0.0822968
0.0987601
0.105557
0.105992
0.103526
0.0994033
0.0907904
0.073779
0.0465226
0.0125204
-0.0189196
-0.0388771
-0.0443996
-0.0407192
-0.0375827
-0.0408734
-0.0473696
-0.0489426
-0.0393
-0.0194541
0.00233899
0.0195153
0.0295763
0.0341657
0.0377016
0.0434491
0.051745
0.0607787
0.0674676
0.0692347
0.0683298
0.0670957
0.0644006
0.0584832
0.0515265
0.0461779
0.0412733
0.0340803
0.0258559
0.0202892
0.0169433
0.0128007
0.00816723
0.00548864
0.00412725
0.00248264
0.00121215
0.00105339
0.0010535
0.00121243
0.00248312
0.00412799
0.00548955
0.00816814
0.0128016
0.0169443
0.0202901
0.0258565
0.0340806
0.041273
0.0461767
0.0515248
0.0584813
0.0643984
0.0670927
0.068326
0.0692307
0.0674641
0.060776
0.0517433
0.0434482
0.0377007
0.0341646
0.0295753
0.019515
0.00233984
-0.0194523
-0.0392978
-0.0489403
-0.0473671
-0.0408706
-0.0375799
-0.040717
-0.0443983
-0.0388766
-0.0189194
0.0125207
0.0465229
0.0737788
0.0907895
0.0994018
0.103524
0.105991
0.105557
0.0987603
0.0822974
0.0549979
0.0193679
0.0218546
0.0620679
0.0930683
0.112225
0.120983
0.123088
0.12205
0.118895
0.110377
0.0923866
0.06356
0.0279137
-0.00505199
-0.0268554
-0.0358379
-0.0375522
-0.0408734
-0.050433
-0.0615456
-0.0665472
-0.060645
-0.0449387
-0.0266809
-0.0111159
5.27127e-05
0.00726251
0.0128443
0.0197927
0.0290832
0.0398502
0.0500061
0.0570352
0.0619591
0.0655864
0.0659863
0.0621218
0.0576173
0.0548261
0.0511969
0.0438886
0.0353925
0.0296848
0.0256777
0.0202765
0.0146931
0.0116077
0.0096141
0.0069585
0.00525561
0.00536318
0.00536343
0.00525611
0.00695904
0.00961491
0.0116088
0.0146942
0.0202774
0.0256785
0.0296855
0.0353926
0.043888
0.0511956
0.0548242
0.0576147
0.0621191
0.0659833
0.0655828
0.0619549
0.0570313
0.0500032
0.0398485
0.0290824
0.0197923
0.0128437
0.0072615
5.17411e-05
-0.011116
-0.0266798
-0.0449368
-0.060643
-0.0665454
-0.0615438
-0.0504308
-0.0408706
-0.0375496
-0.0358361
-0.0268545
-0.00505156
0.0279141
0.0635606
0.0923869
0.110376
0.118894
0.122049
0.123088
0.120984
0.112225
0.0930695
0.0620689
0.021855
0.0245848
0.0698979
0.105109
0.127404
0.138345
0.141903
0.141542
0.138063
0.128145
0.107852
0.0766346
0.0391806
0.00479912
-0.0187912
-0.0312512
-0.0382654
-0.0473696
-0.0615456
-0.0750012
-0.0810807
-0.0768997
-0.0641542
-0.0489692
-0.0350135
-0.022879
-0.0130924
-0.00550124
0.00235518
0.0117766
0.0228777
0.0349383
0.0462641
0.0567504
0.0654602
0.0695953
0.0687078
0.0673781
0.0675468
0.0658076
0.0593254
0.0512546
0.0454976
0.0407926
0.034213
0.027556
0.0236386
0.020779
0.0171249
0.0148007
0.0148034
0.0148037
0.0148014
0.0171255
0.0207797
0.0236398
0.0275572
0.0342137
0.040793
0.0454977
0.0512541
0.0593238
0.0658053
0.0675441
0.067375
0.0687046
0.069592
0.0654566
0.0567468
0.0462613
0.0349369
0.0228775
0.011777
0.00235553
-0.00550143
-0.0130931
-0.0228797
-0.0350133
-0.0489678
-0.0641522
-0.0768978
-0.0810792
-0.0749998
-0.0615438
-0.0473671
-0.038263
-0.0312496
-0.0187906
0.0047989
0.0391802
0.0766345
0.107852
0.128145
0.138063
0.141542
0.141904
0.138346
0.127406
0.105111
0.0698996
0.0245854
0.0256927
0.0730414
0.109896
0.133482
0.145483
0.150039
0.150484
0.147272
0.137084
0.116153
0.0846493
0.047781
0.0142573
-0.00922743
-0.0237165
-0.0350075
-0.0489426
-0.0665472
-0.0810807
-0.0868958
-0.0830977
-0.0724632
-0.0600496
-0.0479413
-0.035604
-0.0241343
-0.0153025
-0.00743292
0.000647872
0.0098145
0.0210117
0.0340649
0.0480856
0.0605297
0.0679213
0.0701099
0.0719753
0.0750426
0.0755729
0.0707553
0.0638906
0.0585544
0.0534801
0.0459927
0.0383309
0.0334724
0.0297047
0.0250892
0.0220225
0.0216937
0.021694
0.0220232
0.0250898
0.0297053
0.0334732
0.0383316
0.0459928
0.0534796
0.0585534
0.0638889
0.0707526
0.0755697
0.0750392
0.071972
0.0701065
0.067918
0.0605267
0.0480832
0.0340637
0.021012
0.00981591
0.000649451
-0.00743201
-0.0153024
-0.0241344
-0.0356039
-0.0479403
-0.0600474
-0.0724606
-0.0830955
-0.0868941
-0.0810792
-0.0665453
-0.0489403
-0.0350055
-0.0237156
-0.00922798
0.0142557
0.0477792
0.0846479
0.116153
0.137084
0.147272
0.150485
0.150041
0.145485
0.133484
0.109899
0.0730436
0.0256935
0.0243785
0.0691283
0.103736
0.125844
0.137332
0.142577
0.144622
0.143326
0.135376
0.117077
0.0891658
0.0571364
0.0284918
0.00832851
-0.00605328
-0.020658
-0.0393
-0.060645
-0.0768997
-0.0830977
-0.0802836
-0.0725026
-0.0636632
-0.0543772
-0.0431383
-0.0312016
-0.0218237
-0.0144922
-0.00863753
-0.0029534
0.00519591
0.0174616
0.0325901
0.0469834
0.0568254
0.0619711
0.0669846
0.0730129
0.0762504
0.0740008
0.069504
0.0657501
0.0611822
0.0534397
0.0453583
0.0400353
0.0355987
0.0301198
0.0263959
0.0258071
0.0258072
0.0263962
0.0301201
0.0355989
0.0400353
0.045358
0.0534388
0.0611806
0.0657476
0.0695009
0.0739971
0.0762465
0.0730091
0.0669813
0.0619681
0.0568227
0.0469814
0.0325893
0.0174622
0.00519766
-0.002951
-0.00863546
-0.0144911
-0.0218235
-0.0312014
-0.0431374
-0.0543753
-0.0636602
-0.0724992
-0.0802807
-0.0830955
-0.0768979
-0.060643
-0.0392978
-0.0206563
-0.00605307
0.00832695
0.0284889
0.0571333
0.0891633
0.117075
0.135376
0.143326
0.144622
0.142578
0.137334
0.125846
0.103738
0.0691303
0.0243793
0.0216628
0.0611762
0.0913486
0.110385
0.120376
0.125893
0.129609
0.130862
0.126494
0.112928
0.0914223
0.0674693
0.0468765
0.0326755
0.0203316
0.00354707
-0.0194541
-0.0449387
-0.0641542
-0.0724632
-0.0725026
-0.0692893
-0.0654044
-0.060292
-0.051633
-0.0404158
-0.030892
-0.0240165
-0.0200967
-0.0177929
-0.0133022
-0.00327674
0.0111516
0.0260767
0.0376419
0.0456269
0.0539261
0.0631968
0.0695462
0.0707212
0.0700434
0.0695159
0.0667351
0.0598354
0.0525484
0.047804
0.0432218
0.0371523
0.0331483
0.0326516
0.0326514
0.0331481
0.0371522
0.0432214
0.0478028
0.0525467
0.0598333
0.0667323
0.069512
0.070039
0.070717
0.0695423
0.0631934
0.0539232
0.0456247
0.0376403
0.026076
0.0111522
-0.00327487
-0.0132997
-0.0177905
-0.020095
-0.024016
-0.030892
-0.0404154
-0.0516314
-0.0602893
-0.0654008
-0.0692855
-0.0724992
-0.0724606
-0.0641522
-0.0449368
-0.0194522
0.00354818
0.0203313
0.0326734
0.046873
0.0674656
0.0914194
0.112926
0.126493
0.130862
0.129609
0.125893
0.120377
0.110386
0.0913503
0.0611776
0.0216633
0.0194187
0.0546545
0.0811824
0.0976256
0.10625
0.111611
0.11607
0.118662
0.116564
0.106723
0.0911266
0.0751966
0.0630722
0.0555953
0.0463563
0.0286408
0.00233899
-0.0266809
-0.0489692
-0.0600496
-0.0636632
-0.0654044
-0.0666152
-0.0660068
-0.0605382
-0.0505959
-0.040967
-0.0340158
-0.0309458
-0.0309079
-0.0297886
-0.0228093
-0.0105363
0.00332178
0.015176
0.0250759
0.0361673
0.0482424
0.0572404
0.0619337
0.0659672
0.0698592
0.0699545
0.0651785
0.0602084
0.0572711
0.0532513
0.0471677
0.0435163
0.04355
0.0435496
0.0435153
0.0471667
0.0532499
0.0572686
0.060205
0.0651748
0.0699506
0.0698545
0.0659622
0.0619295
0.0572372
0.0482399
0.0361653
0.0250747
0.0151758
0.00332251
-0.0105345
-0.0228066
-0.0297857
-0.0309058
-0.0309448
-0.0340156
-0.0409668
-0.0505948
-0.0605359
-0.0660035
-0.0666114
-0.0654008
-0.0636602
-0.0600474
-0.0489678
-0.0266798
0.00233982
0.0286409
0.0463551
0.0555927
0.0630687
0.0751934
0.0911242
0.106722
0.116564
0.118662
0.11607
0.111612
0.10625
0.0976264
0.0811835
0.0546553
0.0194191
0.0188996
0.0531715
0.0788194
0.0945748
0.102672
0.107397
0.110908
0.112156
0.108927
0.0993314
0.0864761
0.0760437
0.0709297
0.0697389
0.0642161
0.0471414
0.0195153
-0.0111159
-0.0350135
-0.0479413
-0.0543772
-0.060292
-0.0660068
-0.0696263
-0.0674508
-0.0591908
-0.0496513
-0.0421354
-0.0386313
-0.0392955
-0.0404143
-0.0361578
-0.026529
-0.0149646
-0.00431008
0.00637461
0.0193929
0.0332091
0.0437454
0.0513825
0.0600845
0.0686023
0.0721895
0.0708065
0.0695777
0.069483
0.0668755
0.061754
0.0592253
0.0600798
0.0600791
0.0592236
0.0617518
0.0668728
0.0694791
0.0695728
0.0708015
0.0721846
0.0685974
0.0600799
0.051379
0.0437435
0.033208
0.0193922
0.00637466
-0.00430886
-0.0149624
-0.0265262
-0.0361547
-0.0404115
-0.0392937
-0.0386308
-0.0421353
-0.0496507
-0.0591891
-0.067448
-0.0696229
-0.0660035
-0.0602893
-0.0543753
-0.0479403
-0.0350133
-0.011116
0.0195149
0.0471406
0.0642146
0.0697363
0.0709266
0.076041
0.0864745
0.0993311
0.108928
0.112157
0.110909
0.107398
0.102673
0.0945756
0.0788204
0.0531723
0.0188999
0.0196333
0.055383
0.0823875
0.0992621
0.107886
0.111994
0.113454
0.111191
0.103929
0.0914269
0.078133
0.0702969
0.0699273
0.0735465
0.0715273
0.0563079
0.0295763
5.27127e-05
-0.022879
-0.035604
-0.0431383
-0.051633
-0.0605382
-0.0674508
-0.0684323
-0.0626236
-0.0541385
-0.0465987
-0.0425571
-0.0432671
-0.0456935
-0.0435886
-0.0368344
-0.0286066
-0.0204138
-0.0100234
0.00377292
0.0179807
0.0289137
0.0386928
0.0512108
0.0637066
0.0711048
0.0743537
0.0780428
0.0816493
0.0816117
0.0789046
0.0783532
0.080114
0.0801133
0.0783509
0.0789011
0.0816074
0.0816442
0.0780369
0.0743477
0.0710994
0.0637022
0.0512073
0.0386906
0.028913
0.017981
0.00377352
-0.0100223
-0.0204116
-0.0286034
-0.036831
-0.0435855
-0.0456912
-0.0432658
-0.0425566
-0.0465983
-0.0541373
-0.0626213
-0.0684295
-0.0674481
-0.0605359
-0.0516314
-0.0431374
-0.035604
-0.0228797
5.16828e-05
0.0295753
0.0563067
0.0715257
0.0735442
0.0699247
0.0702947
0.0781318
0.0914269
0.10393
0.111192
0.113455
0.111995
0.107887
0.0992633
0.0823887
0.055384
0.0196337
0.0202042
0.0571674
0.0854989
0.103751
0.113389
0.117521
0.117532
0.112153
0.100882
0.0849565
0.0700572
0.063098
0.0654484
0.0719815
0.0724018
0.0590655
0.0341657
0.00726251
-0.0130924
-0.0241343
-0.0312016
-0.0404158
-0.0505959
-0.0591908
-0.0626236
-0.059594
-0.0530122
-0.0464424
-0.0425936
-0.0433856
-0.0465434
-0.0462033
-0.0425344
-0.0382985
-0.0333515
-0.0242678
-0.0110562
0.00224922
0.0127197
0.0237005
0.0385049
0.0536544
0.0647162
0.0732647
0.0823959
0.0902446
0.0939987
0.0952161
0.0973648
0.0999634
0.0999626
0.0973621
0.0952116
0.0939931
0.0902387
0.0823899
0.0732587
0.0647111
0.053651
0.0385031
0.0236997
0.0127199
0.00225031
-0.0110545
-0.0242658
-0.0333488
-0.0382949
-0.0425308
-0.0462004
-0.0465417
-0.0433848
-0.0425933
-0.0464418
-0.0530108
-0.0595918
-0.0626213
-0.0591891
-0.0505949
-0.0404154
-0.0312014
-0.0241345
-0.0130931
0.00726145
0.0341646
0.0590643
0.0724004
0.0719796
0.0654462
0.063096
0.070056
0.0849564
0.100883
0.112155
0.117533
0.117522
0.11339
0.103753
0.0855004
0.0571685
0.0202047
0.0195948
0.0556275
0.0836904
0.102453
0.113085
0.117969
0.117826
0.111094
0.0977252
0.0801202
0.0648667
0.0591975
0.063837
0.0722906
0.0739886
0.0615094
0.0377016
0.0128443
-0.00550124
-0.0153025
-0.0218237
-0.030892
-0.040967
-0.0496513
-0.0541385
-0.0530122
-0.0480815
-0.0427551
-0.0393804
-0.0400252
-0.043268
-0.0442148
-0.0434141
-0.0431144
-0.041683
-0.0348047
-0.0234253
-0.0119514
-0.00251668
0.00865645
0.0240251
0.0402503
0.0541692
0.0676133
0.0818302
0.0940235
0.102382
0.108463
0.113676
0.11702
0.11702
0.113673
0.108458
0.102376
0.0940176
0.0818248
0.0676083
0.0541652
0.0402482
0.0240248
0.00865697
-0.00251575
-0.0119498
-0.0234229
-0.0348017
-0.0416796
-0.0431105
-0.0434105
-0.0442123
-0.0432669
-0.040025
-0.0393804
-0.0427547
-0.0480805
-0.0530108
-0.0541373
-0.0496507
-0.0409669
-0.030892
-0.0218236
-0.0153024
-0.00550148
0.0128437
0.0377008
0.0615085
0.0739875
0.0722889
0.0638349
0.0591956
0.0648655
0.08012
0.0977257
0.111095
0.117827
0.117969
0.113086
0.102454
0.0836916
0.0556285
0.0195952
0.0181011
0.0515595
0.0780131
0.0963762
0.107646
0.113451
0.113855
0.107003
0.0930984
0.0755807
0.061662
0.058469
0.0659724
0.0763446
0.0788999
0.066745
0.0434491
0.0197927
0.00235518
-0.00743292
-0.0144922
-0.0240165
-0.0340158
-0.0421354
-0.0465987
-0.0464424
-0.0427551
-0.0386949
-0.0359195
-0.0363296
-0.0392858
-0.0410665
-0.0426093
-0.0458029
-0.0478533
-0.0437073
-0.0347884
-0.0254595
-0.0172187
-0.00634176
0.00873833
0.025096
0.040847
0.0580688
0.0765743
0.0929662
0.106111
0.117134
0.125394
0.129503
0.129503
0.125392
0.11713
0.106106
0.0929611
0.0765702
0.0580657
0.0408449
0.0250952
0.00873892
-0.00634044
-0.0172172
-0.0254574
-0.0347855
-0.0437038
-0.0478495
-0.0457992
-0.0426064
-0.0410651
-0.0392858
-0.0363303
-0.0359203
-0.0386952
-0.0427548
-0.0464419
-0.0465984
-0.0421353
-0.0340157
-0.024016
-0.0144912
-0.00743203
0.00235551
0.0197923
0.0434482
0.0667439
0.0788986
0.0763428
0.0659703
0.0584669
0.0616606
0.0755803
0.0930988
0.107004
0.113856
0.113451
0.107647
0.0963771
0.0780141
0.0515603
0.0181014
0.0165901
0.0474269
0.0721672
0.0899123
0.101486
0.107792
0.108392
0.101349
0.0871864
0.0703805
0.0585361
0.0584181
0.0692381
0.0818595
0.0855871
0.0742008
0.051745
0.0290832
0.0117766
0.000647872
-0.00863753
-0.0200967
-0.0309458
-0.0386313
-0.0425571
-0.0425936
-0.0393804
-0.0359195
-0.0332739
-0.0329803
-0.0349262
-0.0366952
-0.0397742
-0.0458796
-0.051228
-0.0500685
-0.0440264
-0.0372846
-0.0306453
-0.0203505
-0.00574417
0.0102016
0.0264832
0.0458009
0.0673289
0.0871415
0.104204
0.119176
0.129944
0.134802
0.134801
0.129943
0.119174
0.104201
0.0871384
0.0673267
0.0457999
0.026483
0.010202
-0.00574326
-0.020349
-0.0306433
-0.037282
-0.0440232
-0.0500648
-0.0512244
-0.0458766
-0.0397726
-0.0366954
-0.0349277
-0.0329822
-0.0332755
-0.0359203
-0.0393805
-0.0425933
-0.0425567
-0.0386308
-0.0309449
-0.0200951
-0.00863546
0.000649454
0.011777
0.0290824
0.0517433
0.0741989
0.0855851
0.0818574
0.069236
0.0584161
0.0585349
0.0703802
0.087187
0.10135
0.108393
0.107793
0.101487
0.089913
0.0721679
0.0474275
0.0165903
0.0156452
0.0448973
0.0687294
0.0862992
0.0981817
0.104586
0.104648
0.0965071
0.0811755
0.0642958
0.0539097
0.0564356
0.0703784
0.0854068
0.0909202
0.0813159
0.0607787
0.0398502
0.0228777
0.0098145
-0.0029534
-0.0177929
-0.0309079
-0.0392955
-0.0432671
-0.0433856
-0.0400252
-0.0363296
-0.0329803
-0.0309367
-0.0304398
-0.0306161
-0.0336616
-0.0412421
-0.0487812
-0.0500341
-0.0467848
-0.0429552
-0.0382934
-0.028617
-0.0142828
0.000993155
0.0166757
0.0364482
0.0594056
0.0810565
0.100181
0.117303
0.129526
0.134861
0.134861
0.129526
0.117303