/*--------------------------------*- C++ -*----------------------------------*\
  =========                 |
  \\      /  F ield         | OpenFOAM: The Open Source CFD Toolbox
   \\    /   O peration     | Website:  https://openfoam.org
    \\  /    A nd           | Version:  10
     \\/     M anipulation  |
\*---------------------------------------------------------------------------*/
FoamFile
{
    format      ascii;
    class       volScalarField;
    location    "87";
    object      h;
}
// * * * * * * * * * * * * * * * * * * * * * * * * * * * * * * * * * * * * * //

dimensions      [0 1 0 0 0 0 0];

internalField   nonuniform List<scalar> 
10000
(
0.00111226
0.00316339
0.00476853
0.00581055
0.006303
0.00633149
0.00599136
0.00533843
0.00435326
0.00293514
0.0010004
-0.00135423
-0.00378041
-0.00580189
-0.00705257
-0.00746905
-0.00731334
-0.00701931
-0.00693673
-0.00712192
-0.0073555
-0.00737806
-0.00713957
-0.00681406
-0.00657319
-0.00638893
-0.00605749
-0.00534681
-0.00412382
-0.00243088
-0.000502453
0.00132
0.00276543
0.00375318
0.00433626
0.00458342
0.00454118
0.00425082
0.00375312
0.00309284
0.00236009
0.00170898
0.00130113
0.00123706
0.00153835
0.00215797
0.00297922
0.00381924
0.00448418
0.00484277
0.00484269
0.00448397
0.00381893
0.00297887
0.0021576
0.00153801
0.0012368
0.00130096
0.0017089
0.00236008
0.00309287
0.00375315
0.00425082
0.0045411
0.00458323
0.00433596
0.00375277
0.00276493
0.00131947
-0.000502942
-0.00243125
-0.00412402
-0.00534679
-0.00605724
-0.00638847
-0.00657257
-0.00681333
-0.00713879
-0.00737729
-0.0073548
-0.00712135
-0.00693634
-0.00701914
-0.00731337
-0.00746924
-0.00705283
-0.00580218
-0.00378071
-0.00135452
0.00100013
0.00293488
0.00435302
0.00533822
0.00599118
0.00633135
0.00630289
0.00581047
0.00476846
0.00316335
0.00111225
0.00316339
0.00900779
0.0136131
0.0166538
0.0181575
0.0183432
0.0174564
0.0156407
0.0128348
0.00874615
0.00312562
-0.00376041
-0.0109146
-0.0169545
-0.0207968
-0.0222223
-0.0219559
-0.0212297
-0.0210428
-0.0215544
-0.022133
-0.0220392
-0.0211541
-0.0200222
-0.0191799
-0.018565
-0.017586
-0.0155627
-0.0120973
-0.00729021
-0.00179665
0.00340536
0.00753276
0.0103629
0.0120698
0.0128632
0.0128702
0.0121925
0.0109267
0.00917477
0.00716985
0.00534556
0.00417643
0.00396567
0.00478314
0.00650046
0.00879439
0.0111524
0.0130246
0.0140355
0.0140354
0.0130241
0.0111517
0.00879364
0.00649969
0.00478241
0.00396508
0.00417603
0.00534531
0.00716969
0.00917462
0.0109265
0.0121922
0.0128697
0.0128624
0.0120687
0.0103617
0.00753138
0.003404
-0.00179782
-0.007291
-0.0120976
-0.0155624
-0.017585
-0.0185635
-0.0191781
-0.0200201
-0.0211519
-0.0220371
-0.0221311
-0.0215529
-0.0210418
-0.0212293
-0.021956
-0.0222228
-0.0207975
-0.0169554
-0.0109154
-0.0037612
0.00312487
0.00874544
0.0128341
0.0156401
0.0174559
0.0183428
0.0181572
0.0166535
0.0136129
0.00900766
0.00316335
0.00476853
0.0136131
0.0206818
0.0255004
0.0280685
0.0286322
0.0274805
0.0247887
0.0204623
0.0140601
0.00518723
-0.00577417
-0.0173019
-0.0272347
-0.0338209
-0.0366189
-0.0366609
-0.0357993
-0.0355592
-0.0361861
-0.0367157
-0.0360396
-0.0340556
-0.0317323
-0.0300149
-0.0288526
-0.0273105
-0.0242937
-0.0191373
-0.0119338
-0.00364132
0.00424106
0.010494
0.0147965
0.0174733
0.0188823
0.0192039
0.0185518
0.0170217
0.0147029
0.0118907
0.00923401
0.00749536
0.00718097
0.00841515
0.0110084
0.0144822
0.0180684
0.0209265
0.0224734
0.0224733
0.0209262
0.018068
0.0144817
0.0110079
0.00841464
0.00718049
0.00749492
0.00923353
0.01189
0.0147021
0.0170205
0.0185504
0.0192022
0.0188804
0.0174713
0.0147945
0.010492
0.00423938
-0.00364251
-0.0119343
-0.019137
-0.0242925
-0.0273085
-0.02885
-0.0300119
-0.0317292
-0.0340526
-0.0360368
-0.0367133
-0.0361843
-0.0355581
-0.035799
-0.0366613
-0.0366199
-0.0338221
-0.027236
-0.0173031
-0.0057753
0.00518616
0.0140591
0.0204613
0.0247879
0.0274798
0.0286317
0.0280681
0.0255
0.0206815
0.013613
0.00476847
0.00581055
0.0166538
0.0255004
0.031785
0.0354026
0.0364756
0.0352032
0.0317487
0.0260402
0.0175951
0.00593838
-0.00848157
-0.0237805
-0.0372056
-0.0464337
-0.0507454
-0.0513013
-0.0503641
-0.0498483
-0.050089
-0.0499105
-0.0479935
-0.0443647
-0.0404638
-0.0376658
-0.0359613
-0.0341064
-0.0306121
-0.02453
-0.0158678
-0.00575965
0.00390568
0.0115603
0.0168216
0.0201775
0.0221358
0.0229111
0.0225914
0.0212247
0.018834
0.0157133
0.0126715
0.0107298
0.0105881
0.0124162
0.0159596
0.0206045
0.0253712
0.0291711
0.0312317
0.0312317
0.0291712
0.0253713
0.0206046
0.0159598
0.0124162
0.0105879
0.0107293
0.0126706
0.015712
0.0188321
0.0212224
0.0225886
0.022908
0.0221327
0.0201745
0.0168189
0.0115581
0.00390418
-0.00576031
-0.0158675
-0.0245286
-0.0306098
-0.0341033
-0.0359577
-0.037662
-0.0404601
-0.0443613
-0.0479905
-0.049908
-0.0500872
-0.0498474
-0.050364
-0.0513019
-0.0507466
-0.0464351
-0.0372071
-0.0237819
-0.00848286
0.0059372
0.017594
0.0260392
0.0317478
0.0352024
0.0364749
0.035402
0.0317845
0.0255
0.0166535
0.00581047
0.006303
0.0181575
0.0280685
0.0354026
0.0398458
0.0412399
0.0395873
0.035052
0.027717
0.0172414
0.00319512
-0.0139311
-0.0320652
-0.0480914
-0.0592743
-0.0646255
-0.0653092
-0.0638339
-0.0624053
-0.061478
-0.0598021
-0.05601
-0.0503548
-0.0447515
-0.0409697
-0.039026
-0.0373667
-0.0340938
-0.0279372
-0.0187603
-0.00778629
0.00280955
0.011184
0.0169008
0.020586
0.0228835
0.0240403
0.0241095
0.0230765
0.0208904
0.017836
0.0148581
0.0132084
0.0137574
0.0166963
0.0216712
0.0278991
0.0341714
0.039144
0.0418414
0.0418415
0.0391443
0.0341718
0.0278996
0.0216716
0.0166965
0.0137573
0.0132077
0.0148569
0.017834
0.0208876
0.023073
0.0241056
0.0240363
0.0228796
0.0205826
0.016898
0.011182
0.00280855
-0.00778625
-0.0187592
-0.027935
-0.0340907
-0.0373629
-0.039022
-0.0409656
-0.0447477
-0.0503515
-0.0560073
-0.0597999
-0.0614764
-0.0624045
-0.0638339
-0.0653099
-0.0646267
-0.0592758
-0.048093
-0.0320666
-0.0139324
0.00319403
0.0172404
0.0277161
0.0350513
0.0395866
0.0412393
0.0398452
0.035402
0.0280681
0.0181572
0.00630289
0.00633149
0.0183432
0.0286322
0.0364756
0.0412399
0.042366
0.0396201
0.0332572
0.0237114
0.0110165
-0.00505301
-0.0239679
-0.0436404
-0.0608458
-0.0726527
-0.077901
-0.0777316
-0.0748122
-0.0715837
-0.0686528
-0.0648069
-0.0587544
-0.051028
-0.0439734
-0.0396724
-0.0381126
-0.037396
-0.0351681
-0.0297857
-0.0209337
-0.00988807
0.00095641
0.00953955
0.0153625
0.0191354
0.0216057
0.0230521
0.0234926
0.022849
0.0210184
0.0183045
0.0157854
0.0149099
0.0166897
0.0213163
0.028302
0.036641
0.0448491
0.0512999
0.0547948
0.0547949
0.0513
0.0448492
0.0366411
0.0283019
0.021316
0.016689
0.0149086
0.0157835
0.018302
0.0210151
0.0228453
0.0234886
0.0230481
0.021602
0.0191324
0.0153602
0.00953827
0.000956125
-0.00988739
-0.0209321
-0.0297832
-0.0351649
-0.0373923
-0.0381086
-0.0396685
-0.0439699
-0.051025
-0.0587519
-0.064805
-0.0686515
-0.071583
-0.0748122
-0.0777323
-0.0779022
-0.0726542
-0.0608473
-0.0436418
-0.023969
-0.00505384
0.0110159
0.0237109
0.0332567
0.0396196
0.0423654
0.0412393
0.0364749
0.0286317
0.0183428
0.00633136
0.00599136
0.0174564
0.0274805
0.0352032
0.0395873
0.0396201
0.0348719
0.0258294
0.0134828
-0.00154941
-0.0191532
-0.0387725
-0.0584684
-0.0751552
-0.0859483
-0.0896776
-0.0875143
-0.0822542
-0.0765187
-0.0710559
-0.0647374
-0.0564068
-0.0468829
-0.0388763
-0.0346977
-0.0342555
-0.0352738
-0.0348949
-0.0310604
-0.0232629
-0.0128182
-0.00228701
0.00611836
0.011844
0.0156395
0.0183149
0.020161
0.0211394
0.0210889
0.0198613
0.0177963
0.0160871
0.0163339
0.0196589
0.0262544
0.0355004
0.046152
0.0564363
0.0644508
0.0687844
0.0687842
0.0644504
0.0564355
0.046151
0.0354991
0.0262527
0.0196569
0.0163315
0.0160844
0.0177932
0.019858
0.0210854
0.021136
0.0201579
0.0183124
0.0156377
0.011843
0.00611823
-0.00228639
-0.012817
-0.023261
-0.031058
-0.0348922
-0.0352707
-0.0342523
-0.0346947
-0.0388736
-0.0468805
-0.0564049
-0.0647359
-0.0710549
-0.0765182
-0.0822543
-0.087515
-0.0896788
-0.0859497
-0.0751566
-0.0584696
-0.0387734
-0.0191537
-0.00154958
0.0134827
0.0258293
0.0348716
0.0396196
0.0395866
0.0352025
0.0274798
0.017456
0.00599119
0.00533843
0.0156407
0.0247887
0.0317487
0.035052
0.0332572
0.0258294
0.0136196
-0.00169592
-0.0188136
-0.0372359
-0.0564244
-0.0747269
-0.0893966
-0.0978039
-0.098931
-0.0940535
-0.0860673
-0.0776797
-0.0696948
-0.061035
-0.0506783
-0.0397112
-0.0311647
-0.0275456
-0.0286885
-0.0319554
-0.0339838
-0.0322913
-0.026175
-0.0169701
-0.00733729
0.000446676
0.00582486
0.00958698
0.0125822
0.01508
0.0169429
0.0178822
0.0176758
0.0166714
0.0161261
0.0177271
0.022674
0.0311744
0.0425154
0.0552523
0.0673694
0.0767448
0.0818034
0.081803
0.0767437
0.0673676
0.0552498
0.0425125
0.0311711
0.0226706
0.0177236
0.0161225
0.0166679
0.0176725
0.0178793
0.0169406
0.0150783
0.0125812
0.00958683
0.00582547
0.000447871
-0.00733569
-0.0169682
-0.026173
-0.0322893
-0.0339816
-0.0319531
-0.0286862
-0.0275435
-0.0311629
-0.0397097
-0.0506771
-0.0610341
-0.0696943
-0.0776795
-0.0860676
-0.0940543
-0.0989322
-0.0978054
-0.0893981
-0.074728
-0.056425
-0.037236
-0.0188133
-0.00169555
0.0136198
0.0258292
0.0332567
0.0350512
0.0317478
0.0247879
0.0156401
0.00533822
0.00435326
0.0128348
0.0204623
0.0260402
0.027717
0.0237114
0.0134828
-0.00169592
-0.0194787
-0.0379444
-0.0562896
-0.0740675
-0.0899959
-0.101768
-0.107122
-0.105291
-0.0976929
-0.087264
-0.076656
-0.0665812
-0.0559241
-0.0437693
-0.0314639
-0.0223583
-0.0191897
-0.0217972
-0.0272691
-0.0318044
-0.0325341
-0.0285657
-0.0212194
-0.0131754
-0.00666859
-0.00216795
0.00121028
0.00437172
0.00755373
0.0104906
0.0127296
0.0139339
0.0144083
0.0154054
0.0186277
0.0253039
0.0356522
0.0488985
0.0634505
0.0771142
0.087616
0.0932695
0.0932689
0.0876144
0.0771116
0.0634471
0.0488945
0.0356478
0.0252994
0.0186232
0.0154012
0.0144045
0.0139308
0.0127272
0.0104891
0.00755309
0.004372
0.00121146
-0.00216609
-0.00666633
-0.013173
-0.0212171
-0.0285635
-0.0325321
-0.0318025
-0.0272674
-0.0217956
-0.0191883
-0.0223571
-0.0314631
-0.0437689
-0.0559239
-0.0665813
-0.0766563
-0.0872645
-0.0976939
-0.105292
-0.107123
-0.101769
-0.0899968
-0.0740678
-0.0562894
-0.0379439
-0.0194781
-0.00169556
0.0134827
0.0237109
0.0277161
0.0260392
0.0204613
0.0128341
0.00435302
0.00293514
0.00874615
0.0140601
0.0175951
0.0172414
0.0110165
-0.00154941
-0.0188136
-0.0379444
-0.0566362
-0.0739572
-0.0896315
-0.102751
-0.111431
-0.113777
-0.109283
-0.0994955
-0.0873084
-0.075162
-0.0635145
-0.0511184
-0.0371483
-0.0232272
-0.0130514
-0.00965203
-0.0129922
-0.020031
-0.026654
-0.0296873
-0.0280751
-0.0230921
-0.0173609
-0.0129771
-0.0102289
-0.00806027
-0.00544493
-0.00212891
0.0015271
0.00492158
0.00759847
0.00979431
0.0127104
0.0179982
0.0268444
0.0394213
0.0548654
0.0714351
0.0867754
0.0984828
0.104771
0.10477
0.098481
0.0867725
0.0714313
0.054861
0.0394165
0.0268395
0.0179935
0.0127061
0.00979069
0.00759565
0.0049197
0.00152618
-0.00212887
-0.00544393
-0.00805841
-0.0102264
-0.0129743
-0.0173582
-0.0230896
-0.0280729
-0.0296854
-0.0266524
-0.0200295
-0.0129909
-0.00965098
-0.0130507
-0.0232269
-0.0371484
-0.0511188
-0.063515
-0.0751626
-0.0873092
-0.0994966
-0.109284
-0.113778
-0.111432
-0.102752
-0.0896315
-0.0739568
-0.0566355
-0.0379439
-0.0188133
-0.00154959
0.0110159
0.0172404
0.017594
0.0140591
0.00874544
0.00293488
0.0010004
0.00312562
0.00518723
0.00593838
0.00319512
-0.00505301
-0.0191532
-0.0372359
-0.0562896
-0.0739572
-0.0893994
-0.102566
-0.112851
-0.118681
-0.118445
-0.111855
-0.100548
-0.087297
-0.0742089
-0.0613665
-0.0473289
-0.0313633
-0.0153856
-0.00344141
0.00111199
-0.00191841
-0.00952199
-0.0174269
-0.0222668
-0.0228787
-0.0204873
-0.0176071
-0.0161336
-0.0161259
-0.0162993
-0.0154167
-0.0130918
-0.00967035
-0.00582002
-0.00205948
0.00181194
0.0069404
0.0148768
0.0266788
0.0423705
0.0609001
0.0802955
0.0979821
0.111382
0.118564
0.118563
0.11138
0.0979793
0.0802919
0.0608959
0.042366
0.0266743
0.0148726
0.00693673
0.00180898
-0.00206161
-0.00582127
-0.00967071
-0.0130912
-0.0154153
-0.0162972
-0.0161234
-0.016131
-0.0176046
-0.0204851
-0.0228768
-0.0222652
-0.0174255
-0.00952073
-0.00191734
0.00111279
-0.00344095
-0.0153855
-0.0313636
-0.0473295
-0.0613672
-0.0742097
-0.0872977
-0.100549
-0.111856
-0.118446
-0.118682
-0.112852
-0.102565
-0.0893989
-0.0739568
-0.0562894
-0.037236
-0.0191537
-0.00505386
0.00319401
0.00593719
0.00518615
0.00312487
0.00100013
-0.00135423
-0.00376041
-0.00577417
-0.00848157
-0.0139311
-0.0239679
-0.0387725
-0.0564244
-0.0740675
-0.0896315
-0.102566
-0.113058
-0.120693
-0.124063
-0.121742
-0.113611
-0.101367
-0.0876123
-0.0740544
-0.0603426
-0.0448221
-0.026858
-0.00863944
0.00549738
0.0119093
0.0101233
0.00298236
-0.00524283
-0.011123
-0.0134698
-0.0134824
-0.0135495
-0.0153539
-0.0187412
-0.0222005
-0.024213
-0.0241212
-0.0221089
-0.0187887
-0.0146417
-0.0094236
-0.00200954
0.00902403
0.0245326
0.0442905
0.0669362
0.0901435
0.111019
0.126735
0.135149
0.135148
0.126733
0.111016
0.0901402
0.0669324
0.0442866
0.0245288
0.00902069
-0.00201222
-0.00942549
-0.0146428
-0.018789
-0.0221084
-0.0241201
-0.0242112
-0.0221984
-0.018739
-0.0153517
-0.0135475
-0.0134807
-0.0134685
-0.011122
-0.00524198
0.00298311
0.0101239
0.0119097
0.00549756
-0.00863956
-0.0268584
-0.0448227
-0.0603432
-0.0740549
-0.0876128
-0.101368
-0.113612
-0.121742
-0.124063
-0.120693
-0.113057
-0.102565
-0.0896315
-0.0740678
-0.056425
-0.0387734
-0.023969
-0.0139324
-0.00848287
-0.00577531
-0.00376121
-0.00135452
-0.00378041
-0.0109146
-0.0173019
-0.0237805
-0.0320652
-0.0436404
-0.0584684
-0.0747269
-0.0899959
-0.102751
-0.112851
-0.120693
-0.125942
-0.127257
-0.123337
-0.114212
-0.101614
-0.08795
-0.0745053
-0.0604876
-0.0440325
-0.0245861
-0.0045347
0.0116269
0.0200826
0.0200905
0.014224
0.00660232
0.00058454
-0.00270547
-0.00448073
-0.00700961
-0.0117834
-0.0185017
-0.0254949
-0.0309575
-0.0338711
-0.0341383
-0.0322077
-0.0284214
-0.0224027
-0.0129996
0.00108393
0.0204767
0.0446617
0.0718936
0.0993998
0.123894
0.142254
0.152082
0.152082
0.142253
0.123892
0.0993966
0.0718901
0.0446582
0.0204736
0.0010815
-0.0130012
-0.0224033
-0.0284212
-0.0322067
-0.0341367
-0.0338691
-0.0309552
-0.0254925
-0.0184995
-0.0117816
-0.00700815
-0.00447973
-0.00270492
0.000584741
0.00660236
0.014224
0.0200905
0.0200824
0.0116266
-0.00453505
-0.0245866
-0.0440329
-0.060488
-0.0745055
-0.0879502
-0.101614
-0.114212
-0.123336
-0.127256
-0.125942
-0.120693
-0.112852
-0.102752
-0.0899968
-0.074728
-0.0584696
-0.0436418
-0.0320667
-0.023782
-0.0173031
-0.0109155
-0.00378072
-0.00580189
-0.0169545
-0.0272347
-0.0372056
-0.0480914
-0.0608458
-0.0751552
-0.0893966
-0.101768
-0.111431
-0.118681
-0.124063
-0.127257
-0.126961
-0.122006
-0.112565
-0.100376
-0.0876206
-0.0751526
-0.0617602
-0.0453862
-0.0255169
-0.00460988
0.0128602
0.0230568
0.0250159
0.0209656
0.0147374
0.00949773
0.00622971
0.00367315
-0.000335574
-0.00713193
-0.0163516
-0.026278
-0.0348973
-0.040837
-0.0436744
-0.0436303
-0.0408383
-0.0347257
-0.024072
-0.00768172
0.014886
0.0428697
0.0741609
0.105532
0.133304
0.154074
0.165201
0.1652
0.154072
0.133301
0.105529
0.0741576
0.0428666
0.0148836
-0.00768331
-0.0240726
-0.0347252
-0.0408369
-0.0436282
-0.0436718
-0.0408342
-0.0348944
-0.0262754
-0.0163494
-0.00713032
-0.000334512
0.00367363
0.00622962
0.00949722
0.0147367
0.0209648
0.0250151
0.0230561
0.0128596
-0.00461041
-0.0255173
-0.0453865
-0.0617604
-0.0751527
-0.0876207
-0.100377
-0.112565
-0.122005
-0.12696
-0.127256
-0.124063
-0.118682
-0.111432
-0.101769
-0.0893981
-0.0751567
-0.0608473
-0.048093
-0.0372071
-0.027236
-0.0169554
-0.0058022
-0.00705257
-0.0207968
-0.0338209
-0.0464337
-0.0592743
-0.0726527
-0.0859483
-0.0978039
-0.107122
-0.113777
-0.118445
-0.121742
-0.123337
-0.122006
-0.116746
-0.107855
-0.0970157
-0.0861262
-0.0756123
-0.0638913
-0.048752
-0.0296797
-0.00906591
0.00881802
0.0202633
0.024135
0.0222576
0.0180595
0.0144186
0.0121301
0.00986733
0.00555254
-0.00202528
-0.0125004
-0.0242219
-0.0351038
-0.0435181
-0.0487479
-0.0507698
-0.0494788
-0.0440775
-0.0332479
-0.0158494
0.00845346
0.0387666
0.0727236
0.106722
0.136757
0.159213
0.171261
0.171261
0.159211
0.136754
0.106719
0.0727208
0.0387642
0.00845182
-0.0158501
-0.0332476
-0.0440762
-0.0494766
-0.0507669
-0.0487447
-0.0435149
-0.0351008
-0.0242194
-0.0124984
-0.00202391
0.0055533
0.00986746
0.0121297
0.0144177
0.0180584
0.0222565
0.0241341
0.0202625
0.00881735
-0.00906642
-0.0296801
-0.0487522
-0.0638915
-0.0756125
-0.0861264
-0.097016
-0.107855
-0.116746
-0.122005
-0.123336
-0.121742
-0.118446
-0.113778
-0.107123
-0.0978054
-0.0859498
-0.0726542
-0.0592758
-0.0464352
-0.0338221
-0.0207976
-0.00705284
-0.00746905
-0.0222223
-0.0366189
-0.0507454
-0.0646255
-0.077901
-0.0896776
-0.098931
-0.105291
-0.109283
-0.111855
-0.113611
-0.114212
-0.112565
-0.107855
-0.100442
-0.0918505
-0.0836206
-0.0757721
-0.0664464
-0.0533596
-0.035985
-0.0165352
0.00107591
0.0133882
0.019137
0.0196992
0.0180146
0.0166105
0.0160735
0.0150008
0.01138
0.00410403
-0.00648431
-0.0188736
-0.0310413
-0.0412377
-0.048521
-0.0526361
-0.053237
-0.0492991
-0.0393898
-0.0223789
0.00204257
0.0329648
0.0679023
0.103009
0.134057
0.157301
0.169799
0.169798
0.1573
0.134055
0.103008
0.0679009
0.0329639
0.00204238
-0.0223783
-0.0393883
-0.0492969
-0.0532343
-0.0526331
-0.0485179
-0.0412349
-0.0310389
-0.0188717
-0.00648297
0.00410487
0.0113804
0.0150006
0.0160729
0.0166097
0.0180138
0.0196985
0.0191364
0.0133878
0.00107561
-0.0165354
-0.0359852
-0.0533599
-0.0664467
-0.0757726
-0.0836212
-0.0918511
-0.100443
-0.107855
-0.112565
-0.114212
-0.113612
-0.111856
-0.109284
-0.105292
-0.0989322
-0.0896788
-0.0779022
-0.0646267
-0.0507466
-0.0366199
-0.0222228
-0.00746925
-0.00731334
-0.0219559
-0.0366609
-0.0513013
-0.0653092
-0.0777316
-0.0875143
-0.0940535
-0.0976929
-0.0994955
-0.100548
-0.101367
-0.101614
-0.100376
-0.0970157
-0.0918505
-0.0861032
-0.0808912
-0.0758899
-0.0691103
-0.0583217
-0.0430125
-0.0251428
-0.00815106
0.00484431
0.0124839
0.0156721
0.0168089
0.0180387
0.0197344
0.020411
0.0180973
0.0117737
0.00176546
-0.0105728
-0.0233603
-0.0348247
-0.0438627
-0.0500105
-0.0526975
-0.0506881
-0.0424332
-0.026792
-0.00344762
0.0267404
0.0612846
0.0962352
0.12725
0.150529
0.163074
0.163074
0.150529
0.127251
0.0962359
0.0612857
0.0267419
-0.00344559
-0.0267895
-0.0424305
-0.0506852
-0.0526946
-0.0500078
-0.0438604
-0.034823
-0.0233591
-0.0105722
0.00176569
0.0117736
0.018097
0.0204104
0.0197337
0.0180381
0.0168086
0.015672
0.012484
0.00484458
-0.00815078
-0.0251426
-0.0430125
-0.0583219
-0.0691108
-0.0758905
-0.0808921
-0.0861041
-0.0918511
-0.097016
-0.100377
-0.101614
-0.101368
-0.100549
-0.0994966
-0.0976939
-0.0940543
-0.087515
-0.0777323
-0.0653099
-0.0513019
-0.0366613
-0.021956
-0.00731338
-0.00701931
-0.0212297
-0.0357993
-0.0503641
-0.0638339
-0.0748122
-0.0822542
-0.0860673
-0.087264
-0.0873084
-0.087297
-0.0876123
-0.08795
-0.0876206
-0.0861262
-0.0836206
-0.0808912
-0.0785919
-0.0761501
-0.0716177
-0.062957
-0.0497168
-0.0335585
-0.0173606
-0.00382615
0.00562894
0.0114386
0.0154469
0.0194086
0.0234892
0.0261207
0.0253507
0.0202233
0.0110541
-0.000935837
-0.01401
-0.0264068
-0.0368984
-0.0448444
-0.0494864
-0.0494135
-0.0429767
-0.0290331
-0.00727623
0.0214861
0.0548335
0.0888354
0.119145
0.141964
0.154291
0.154292
0.141966
0.119147
0.0888389
0.0548377
0.0214907
-0.0072715
-0.0290285
-0.0429725
-0.0494098
-0.0494835
-0.0448423
-0.0368973
-0.0264065
-0.0140104
-0.000936668
0.011053
0.0202221
0.0253495
0.0261196
0.0234884
0.0194083
0.0154471
0.0114393
0.00562979
-0.00382529
-0.0173599
-0.0335582
-0.0497168
-0.0629574
-0.0716184
-0.0761509
-0.0785928
-0.0808921
-0.0836212
-0.0861264
-0.0876207
-0.0879502
-0.0876128
-0.0872978
-0.0873092
-0.0872645
-0.0860676
-0.0822543
-0.0748122
-0.0638339
-0.050364
-0.035799
-0.0212293
-0.00701915
-0.00693673
-0.0210428
-0.0355592
-0.0498483
-0.0624053
-0.0715837
-0.0765187
-0.0776797
-0.076656
-0.075162
-0.0742089
-0.0740544
-0.0745053
-0.0751526
-0.0756123
-0.0757721
-0.0758899
-0.0761501
-0.0758365
-0.0731933
-0.0664862
-0.0553505
-0.0411128
-0.0260317
-0.0123381
-0.00145701
0.00660607
0.0131554
0.0195721
0.0258395
0.0303286
0.0310971
0.0272176
0.0189772
0.00748688
-0.00562244
-0.0185845
-0.030067
-0.0392988
-0.0453951
-0.0468304
-0.0418963
-0.0294746
-0.0093091
0.0178109
0.0495631
0.0821409
0.111304
0.133329
0.145254
0.145255
0.133332
0.111309
0.0821473
0.0495703
0.0178184
-0.00930178
-0.029468
-0.0418906
-0.046826
-0.045392
-0.0392972
-0.0300668
-0.0185854
-0.00562405
0.00748483
0.018975
0.0272154
0.0310952
0.0303271
0.0258386
0.0195719
0.0131559
0.00660705
-0.00145591
-0.0123372
-0.0260312
-0.0411128
-0.0553511
-0.066487
-0.0731942
-0.0758374
-0.0761509
-0.0758905
-0.0757726
-0.0756125
-0.0751527
-0.0745056
-0.0740549
-0.0742097
-0.0751626
-0.0766563
-0.0776795
-0.0765182
-0.071583
-0.0624045
-0.0498474
-0.0355581
-0.0210418
-0.00693635
-0.00712192
-0.0215544
-0.0361861
-0.050089
-0.061478
-0.0686528
-0.0710559
-0.0696948
-0.0665812
-0.0635145
-0.0613665
-0.0603426
-0.0604876
-0.0617602
-0.0638913
-0.0664464
-0.0691103
-0.0716177
-0.0731933
-0.072374
-0.0677777
-0.0591104
-0.0473222
-0.0340172
-0.0209178
-0.00940737
0.000121259
0.00847095
0.0166852
0.0246179
0.0306361
0.0328241
0.030241
0.0230912
0.0123637
-0.000388054
-0.0133721
-0.0251708
-0.034938
-0.0417435
-0.0440367
-0.0401151
-0.0289147
-0.0102497
0.0150887
0.0448999
0.075594
0.103155
0.124027
0.13535
0.135352
0.124031
0.103161
0.0756023
0.0449093
0.0150983
-0.0102405
-0.0289066
-0.0401084
-0.0440317
-0.0417404
-0.0349368
-0.0251712
-0.0133736
-0.0003903
0.012361
0.0230885
0.0302384
0.0328219
0.0306345
0.0246171
0.0166851
0.00847152
0.000122104
-0.00940662
-0.0209175
-0.0340175
-0.0473232
-0.0591118
-0.0677792
-0.0723752
-0.0731942
-0.0716184
-0.0691108
-0.0664467
-0.0638915
-0.0617605
-0.060488
-0.0603432
-0.0613672
-0.063515
-0.0665813
-0.0696943
-0.0710549
-0.0686514
-0.0614764
-0.0500872
-0.0361843
-0.0215529
-0.00712136
-0.0073555
-0.022133
-0.0367157
-0.0499105
-0.0598021
-0.0648069
-0.0647374
-0.061035
-0.0559241
-0.0511184
-0.0473289
-0.0448221
-0.0440325
-0.0453862
-0.048752
-0.0533596
-0.0583217
-0.062957
-0.0664862
-0.0677777
-0.0657862
-0.0602318
-0.0516455
-0.0409698
-0.029411
-0.0182711
-0.00827272
0.000931042
0.0100893
0.0189966
0.0260985
0.0295459
0.0283508
0.0225633
0.0130001
0.00112477
-0.0112502
-0.0226445
-0.0321842
-0.0389725
-0.0415392
-0.0382728
-0.028187
-0.011146
0.0120816
0.0394546
0.0676777
0.093065
0.112329
0.122796
0.122797
0.112333
0.0930721
0.0676868
0.0394647
0.012092
-0.0111362
-0.0281784
-0.0382658
-0.0415341
-0.0389694
-0.032183
-0.0226449
-0.0112517
0.00112261
0.0129976
0.0225608
0.0283486
0.0295441
0.0260974
0.018996
0.0100893
0.000931401
-0.00827241
-0.0182712
-0.0294118
-0.0409714
-0.0516477
-0.0602343
-0.0657884
-0.0677792
-0.066487
-0.0629574
-0.0583219
-0.0533599
-0.0487522
-0.0453865
-0.0440329
-0.0448227
-0.0473295
-0.0511188
-0.0559239
-0.0610341
-0.0647359
-0.064805
-0.0597999
-0.049908
-0.0367133
-0.0221311
-0.0073548
-0.00737806
-0.0220392
-0.0360396
-0.0479935
-0.05601
-0.0587544
-0.0564068
-0.0506783
-0.0437693
-0.0371483
-0.0313633
-0.026858
-0.0245861
-0.0255169
-0.0296797
-0.035985
-0.0430125
-0.0497168
-0.0553505
-0.0591104
-0.0602318
-0.0583726
-0.0536067
-0.0462296
-0.0369528
-0.0269785
-0.0173122
-0.00802472
0.00137145
0.0106695
0.0184689
0.0230321
0.0233091
0.0191368
0.0110982
0.000522105
-0.0107895
-0.0213099
-0.0301491
-0.0364879
-0.0390275
-0.0363355
-0.0275205
-0.0124467
0.00820201
0.0325927
0.0577752
0.080454
0.0976799
0.107046
0.107047
0.0976842
0.0804607
0.0577837
0.0326021
0.00821167
-0.0124375
-0.0275123
-0.0363288
-0.0390226
-0.036485
-0.0301478
-0.0213099
-0.0107905
0.000520598
0.0110965
0.0191352
0.0233077
0.0230311
0.0184683
0.0106693
0.00137144
-0.0080248
-0.0173127
-0.0269796
-0.0369547
-0.0462323
-0.0536099
-0.0583757
-0.0602343
-0.0591118
-0.0553511
-0.0497168
-0.0430125
-0.0359852
-0.0296801
-0.0255173
-0.0245866
-0.0268584
-0.0313636
-0.0371483
-0.0437688
-0.0506771
-0.0564049
-0.0587519
-0.0560072
-0.0479905
-0.0360368
-0.0220371
-0.00737729
-0.00713957
-0.0211541
-0.0340556
-0.0443647
-0.0503548
-0.051028
-0.0468829
-0.0397112
-0.0314639
-0.0232272
-0.0153856
-0.00863944
-0.0045347
-0.00460988
-0.00906591
-0.0165352
-0.0251428
-0.0335585
-0.0411128
-0.0473222
-0.0516455
-0.0536067
-0.0527875
-0.0488582
-0.0420758
-0.0335473
-0.0245283
-0.015476
-0.00615001
0.00326376
0.0115551
0.0171264
0.0188626
0.0163591
0.00992668
0.00071783
-0.00950741
-0.0191715
-0.0273333
-0.0332366
-0.0357974
-0.0338277
-0.0265457
-0.0137687
0.00396669
0.0250744
0.0469587
0.0667074
0.0817133
0.0898676
0.0898688
0.0817167
0.0667127
0.0469653
0.0250819
0.00397454
-0.013761
-0.0265388
-0.0338219
-0.0357931
-0.0332338
-0.0273317
-0.0191709
-0.00950753
0.00071723
0.00992589
0.0163583
0.0188621
0.0171261
0.0115549
0.0032636
-0.00615032
-0.0154767
-0.0245295
-0.0335492
-0.0420784
-0.0488615
-0.0527911
-0.0536099
-0.0516477
-0.0473232
-0.0411128
-0.0335582
-0.0251426
-0.0165354
-0.00906642
-0.00461041
-0.00453505
-0.00863956
-0.0153855
-0.0232269
-0.0314631
-0.0397097
-0.0468805
-0.051025
-0.0503515
-0.0443613
-0.0340526
-0.0211519
-0.00713879
-0.00681406
-0.0200222
-0.0317323
-0.0404638
-0.0447515
-0.0439734
-0.0388763
-0.0311647
-0.0223583
-0.0130514
-0.00344141
0.00549738
0.0116269
0.0128602
0.00881802
0.00107591
-0.00815106
-0.0173606
-0.0260317
-0.0340172
-0.0409698
-0.0462296
-0.0488582
-0.0479251
-0.0432832
-0.0359653
-0.0274485
-0.0185407
-0.00924138
0.000272243
0.00897307
0.0154014
0.018374
0.0172457
0.0120627
0.00380101
-0.0058261
-0.015166
-0.0231593
-0.0290444
-0.0319321
-0.0308978
-0.0252836
-0.0148489
3.3047e-05
0.0180256
0.036858
0.0539378
0.0669287
0.0739783
0.073979
0.0669308
0.0539411
0.0368621
0.0180305
3.84192e-05
-0.0148435
-0.0252784
-0.0308932
-0.0319285
-0.0290417
-0.0231574
-0.0151647
-0.00582533
0.00380133
0.0120628
0.0172458
0.0183741
0.0154015
0.00897296
0.000271839
-0.00924217
-0.0185419
-0.0274503
-0.0359676
-0.0432861
-0.0479283
-0.0488615
-0.0462323
-0.0409714
-0.0340175
-0.0260312
-0.0173599
-0.00815076
0.00107562
0.00881736
0.0128596
0.0116267
0.00549758
-0.00344093
-0.0130507
-0.0223571
-0.0311628
-0.0388735
-0.0439699
-0.0447476
-0.0404601
-0.0317292
-0.0200201
-0.00681332
-0.00657319
-0.0191799
-0.0300149
-0.0376658
-0.0409697
-0.0396724
-0.0346977
-0.0275456
-0.0191897
-0.00965203
0.00111199
0.0119093
0.0200826
0.0230568
0.0202633
0.0133882
0.00484431
-0.00382615
-0.0123381
-0.0209178
-0.029411
-0.0369528
-0.0420758
-0.0432832
-0.0400853
-0.0334709
-0.025112
-0.0161163
-0.00670572
0.00293148
0.0119204
0.0189112
0.0226346
0.0222192
0.0174999
0.00933575
-0.000570122
-0.0104556
-0.019074
-0.0255657
-0.0291621
-0.0291717
-0.0250718
-0.0166061
-0.00403738
0.0114974
0.0279983
0.0431079
0.0546437
0.0608997
0.0608999
0.0546442
0.0431088
0.0279998
0.0114994
-0.00403482
-0.0166031
-0.0250687
-0.0291685
-0.0291591
-0.025563
-0.0190716
-0.0104535
-0.000568521
0.0093369
0.0175007
0.0222198
0.022635
0.0189113
0.01192
0.00293062
-0.00670708
-0.0161181
-0.0251141
-0.0334733
-0.040088
-0.0432861
-0.0420784
-0.0369547
-0.0294118
-0.0209174
-0.0123372
-0.00382528
0.0048446
0.0133878
0.0202625
0.0230561
0.0200825
0.0119097
0.00111282
-0.00965095
-0.0191882
-0.0275435
-0.0346946
-0.0396685
-0.0409656
-0.037662
-0.0300119
-0.0191781
-0.00657256
-0.00638893
-0.018565
-0.0288526
-0.0359613
-0.039026
-0.0381126
-0.0342555
-0.0286885
-0.0217972
-0.0129922
-0.00191841
0.0101233
0.0200905
0.0250159
0.024135
0.019137
0.0124839
0.00562894
-0.00145701
-0.00940737
-0.0182711
-0.0269785
-0.0335473
-0.0359653
-0.0334709
-0.0270537
-0.0185614
-0.00934113
0.000206513
0.00988224
0.0189338
0.0260747
0.0299072
0.029338
0.0240642
0.0149336
0.00371392
-0.00768373
-0.0177748
-0.0255136
-0.0301507
-0.0311589
-0.0281531
-0.0209374
-0.00977694
0.00429365
0.0194726
0.0335541
0.0443879
0.050275
0.0502746
0.0443869
0.0335528
0.0194714
0.00429275
-0.00977733
-0.0209372
-0.0281521
-0.0311572
-0.0301484
-0.0255108
-0.0177719
-0.00768097
0.0037163
0.0149355
0.0240657
0.0293391
0.0299078
0.0260747
0.018933
0.00988086
0.000204627
-0.00934333
-0.0185637
-0.027056
-0.0334733
-0.0359676
-0.0335492
-0.0269796
-0.0182712
-0.00940662
-0.0014559
0.00562981
0.0124841
0.0191364
0.0241341
0.0250152
0.0200905
0.0101239
-0.00191732
-0.0129909
-0.0217956
-0.0286862
-0.0342523
-0.0381086
-0.0390219
-0.0359577
-0.02885
-0.0185635
-0.00638846
-0.00605749
-0.017586
-0.0273105
-0.0341064
-0.0373667
-0.037396
-0.0352738
-0.0319554
-0.0272691
-0.020031
-0.00952199
0.00298236
0.014224
0.0209656
0.0222576
0.0196992
0.0156721
0.0114386
0.00660607
0.000121259
-0.00827272
-0.0173122
-0.0245283
-0.0274485
-0.025112
-0.0185614
-0.00981389
-0.000393286
0.00918639
0.0187403
0.0276176
0.034539
0.037915
0.0364098
0.0296393
0.018547
0.00505569
-0.00873056
-0.0210538
-0.0306132
-0.0365765
-0.0384925
-0.0360952
-0.0293178
-0.0185508
-0.00485412
0.010068
0.0240767
0.0349536
0.0408886
0.0408877
0.0349513
0.0240734
0.0100643
-0.00485789
-0.0185541
-0.0293204
-0.0360966
-0.0384924
-0.0365751
-0.0306106
-0.0210506
-0.00872727
0.00505876
0.0185497
0.0296415
0.0364114
0.0379158
0.0345388
0.0276166
0.0187386
0.00918416
-0.000395782
-0.00981639
-0.0185637
-0.025114
-0.0274502
-0.0245295
-0.0173127
-0.0082724
0.000122106
0.00660705
0.0114393
0.0156721
0.0196985
0.0222565
0.0209648
0.014224
0.00298312
-0.00952072
-0.0200295
-0.0272674
-0.0319531
-0.0352707
-0.0373923
-0.0373629
-0.0341033
-0.0273085
-0.017585
-0.00605723
-0.00534681
-0.0155627
-0.0242937
-0.0306121
-0.0340938
-0.0351681
-0.0348949
-0.0339838
-0.0318044
-0.026654
-0.0174269
-0.00524283
0.00660232
0.0147374
0.0180595
0.0180146
0.0168089
0.0154469
0.0131554
0.00847095
0.000931042
-0.00802472
-0.015476
-0.0185407
-0.0161163
-0.00934113
-0.000393286
0.00908925
0.0185517
0.0278558
0.0364316
0.0429534
0.0455781
0.0426866
0.0338237
0.0200922
0.00364428
-0.0131736
-0.0283004
-0.0401363
-0.0476924
-0.0505146
-0.0484142
-0.0414687
-0.0302691
-0.0160224
-0.000465681
0.014228
0.0257048
0.0319873
0.0319862
0.0257015
0.014223
-0.000471667
-0.0160288
-0.0302752
-0.0414738
-0.0484177
-0.0505162
-0.0476921
-0.0401343