/*--------------------------------*- C++ -*----------------------------------*\
  =========                 |
  \\      /  F ield         | OpenFOAM: The Open Source CFD Toolbox
   \\    /   O peration     | Website:  https://openfoam.org
    \\  /    A nd           | Version:  10
     \\/     M anipulation  |
\*---------------------------------------------------------------------------*/
FoamFile
{
    format      ascii;
    class       volScalarField;
    location    "3";
    object      h_0;
}
// * * * * * * * * * * * * * * * * * * * * * * * * * * * * * * * * * * * * * //

dimensions      [0 1 0 0 0 0 0];

internalField   nonuniform List<scalar> 
10000
(
8.65107e-110
7.37205e-108
6.03303e-106
4.79371e-104
3.6958e-102
2.76275e-100
2.00104e-98
1.4032e-96
9.51889e-95
6.24154e-93
3.95235e-91
2.41476e-89
1.42209e-87
8.0643e-86
4.39869e-84
2.30515e-82
1.15922e-80
5.58682e-79
2.5769e-77
1.13587e-75
4.77724e-74
1.91389e-72
7.29062e-71
2.63558e-69
9.02273e-68
2.91851e-66
8.8975e-65
2.54963e-63
6.84691e-62
1.71746e-60
4.00923e-59
8.67447e-58
1.73152e-56
3.1721e-55
5.30146e-54
8.02723e-53
1.09228e-51
1.32287e-50
1.40952e-49
1.30258e-48
1.02548e-47
6.7207e-47
3.55604e-46
1.4569e-45
4.36187e-45
8.86245e-45
1.17616e-44
1.28584e-44
1.31448e-44
1.32001e-44
1.32e-44
1.31442e-44
1.28559e-44
1.17547e-44
8.84969e-45
4.34911e-45
1.44991e-45
3.53145e-46
6.65852e-47
1.0134e-47
1.28372e-48
1.38507e-49
1.29589e-50
1.0665e-51
7.81065e-53
5.13965e-54
3.06353e-55
1.66557e-56
8.30913e-58
3.82361e-59
1.63048e-60
6.46939e-62
2.3972e-63
8.32284e-65
2.71557e-66
8.34932e-68
2.42505e-69
6.66901e-71
1.74014e-72
4.31649e-74
1.01973e-75
2.29815e-77
4.94866e-79
1.01965e-80
2.01307e-82
3.8131e-84
6.93799e-86
1.21402e-87
2.04513e-89
3.32024e-91
5.19986e-93
7.86302e-95
1.14907e-96
1.62413e-98
2.22212e-100
2.94518e-102
3.7842e-104
4.71688e-106
5.70748e-108
6.63136e-110
7.37205e-108
6.24297e-106
5.07618e-104
4.00699e-102
3.06861e-100
2.27827e-98
1.63866e-96
1.14094e-94
7.68377e-93
5.00105e-91
3.14296e-89
1.90548e-87
1.11335e-85
6.26286e-84
3.3881e-82
1.76068e-80
8.77846e-79
4.19376e-77
1.91707e-75
8.37304e-74
3.48864e-72
1.38429e-70
5.22165e-69
1.86876e-67
6.33206e-66
2.02671e-64
6.11239e-63
1.73228e-61
4.59955e-60
1.14042e-58
2.6307e-57
5.62281e-56
1.10842e-54
2.00471e-53
3.30664e-52
4.9397e-51
6.62928e-50
7.91597e-49
8.31335e-48
7.57004e-47
5.87102e-46
3.79004e-45
1.97557e-44
7.97839e-44
2.35867e-43
4.75264e-43
6.31055e-43
6.9085e-43
7.06713e-43
7.09822e-43
7.09816e-43
7.0668e-43
6.90722e-43
6.30694e-43
4.74611e-43
2.35214e-43
7.94233e-44
1.96269e-44
3.75697e-45
5.80577e-46
7.46652e-47
8.17698e-48
7.7632e-49
6.48106e-50
4.81335e-51
3.21088e-52
1.93955e-53
1.0683e-54
5.39757e-56
2.51476e-57
1.08541e-58
4.3578e-60
1.63349e-61
5.73554e-63
1.89209e-64
5.88034e-66
1.72599e-67
4.79558e-69
1.26395e-70
3.16626e-72
7.55233e-74
1.71816e-75
3.73402e-77
7.76352e-79
1.54635e-80
2.95454e-82
5.42167e-84
9.56614e-86
1.62471e-87
2.65887e-89
4.19687e-91
6.39535e-93
9.41667e-95
1.34088e-96
1.84796e-98
2.46682e-100
3.19184e-102
4.00599e-104
4.88016e-106
5.70746e-108
6.03303e-106
5.07618e-104
4.1001e-102
3.21461e-100
2.44482e-98
1.80237e-96
1.28706e-94
8.89568e-93
5.94611e-91
3.84055e-89
2.39483e-87
1.44036e-85
8.34747e-84
4.65669e-82
2.49783e-80
1.2868e-78
6.35892e-77
3.01036e-75
1.36337e-73
5.89832e-72
2.43374e-70
9.56135e-69
3.57003e-67
1.2644e-65
4.2387e-64
1.34191e-62
4.00193e-61
1.1212e-59
2.94211e-58
7.20705e-57
1.64202e-55
3.46528e-54
6.74253e-53
1.20325e-51
1.9576e-50
2.88348e-49
3.81424e-48
4.48763e-47
4.64207e-46
4.16219e-45
3.17773e-44
2.01919e-43
1.03612e-42
4.12193e-42
1.20259e-41
2.40235e-41
3.19136e-41
3.49882e-41
3.58173e-41
3.59824e-41
3.59822e-41
3.58157e-41
3.49819e-41
3.18961e-41
2.39921e-41
1.19945e-41
4.1044e-42
1.02976e-42
2.00261e-43
3.14448e-44
4.10854e-45
4.57022e-46
4.40584e-47
3.73363e-48
2.8137e-49
1.90391e-50
1.16618e-51
6.51096e-53
3.33347e-54
1.57326e-55
6.87641e-57
2.79493e-58
1.0603e-59
3.76676e-61
1.2569e-62
3.9501e-64
1.17214e-65
3.29164e-67
8.76648e-69
2.21855e-70
5.3448e-72
1.22786e-73
2.69405e-75
5.65385e-77
1.13649e-78
2.19097e-80
4.05592e-82
7.21816e-84
1.2363e-85
2.04e-87
3.24619e-89
4.98609e-91
7.39903e-93
1.06166e-94
1.47415e-96
1.98235e-98
2.58356e-100
3.26561e-102
4.00599e-104
4.71687e-106
4.79371e-104
4.00699e-102
3.21461e-100
2.50297e-98
1.8902e-96
1.38349e-94
9.80707e-93
6.72761e-91
4.4626e-89
2.8599e-87
1.76915e-85
1.0554e-83
6.06573e-82
3.35512e-80
1.78408e-78
9.10955e-77
4.46088e-75
2.09226e-73
9.38599e-72
4.0213e-70
1.64281e-68
6.38854e-67
2.36059e-65
8.27155e-64
2.7427e-62
8.58607e-61
2.5313e-59
7.00862e-58
1.817e-56
4.39606e-55
9.88908e-54
2.05987e-52
3.95458e-51
6.9607e-50
1.11657e-48
1.621e-47
2.11258e-46
2.44793e-45
2.49297e-44
2.19993e-43
1.65263e-42
1.03312e-41
5.21628e-41
2.0433e-40
5.88121e-40
1.16457e-39
1.54773e-39
1.69938e-39
1.74097e-39
1.74939e-39
1.74938e-39
1.74089e-39
1.69908e-39
1.54692e-39
1.16313e-39
5.86677e-40
2.03514e-40
5.18624e-41
1.02515e-41
1.63637e-42
2.17325e-43
2.45663e-44
2.40586e-45
2.07043e-46
1.58393e-47
1.08761e-48
6.75771e-50
3.8259e-51
1.98557e-52
9.49602e-54
4.2045e-55
1.7306e-56
6.64645e-58
2.38968e-59
8.06784e-61
2.56467e-62
7.6958e-64
2.18486e-65
5.88123e-67
1.50396e-68
3.66038e-70
8.49322e-72
1.88176e-73
3.98702e-75
8.0896e-77
1.57387e-78
2.93976e-80
5.27787e-82
9.11778e-84
1.51724e-85
2.43435e-87
3.76952e-89
5.63829e-91
8.15341e-93
1.14081e-94
1.54563e-96
2.02926e-98
2.58356e-100
3.19184e-102
3.78419e-104
3.6958e-102
3.06861e-100
2.44482e-98
1.8902e-96
1.4172e-94
1.02969e-92
7.24455e-91
4.9318e-89
3.24591e-87
2.06363e-85
1.2662e-83
7.49092e-82
4.26877e-80
2.34071e-78
1.23365e-76
6.24199e-75
3.02835e-73
1.40692e-71
6.25036e-70
2.65133e-68
1.07215e-66
4.12605e-65
1.50837e-63
5.22775e-62
1.71407e-60
5.30452e-59
1.5455e-57
4.22767e-56
1.0825e-54
2.58585e-53
5.74137e-52
1.17996e-50
2.23428e-49
3.87741e-48
6.12999e-47
8.76741e-46
1.12525e-44
1.28354e-43
1.2863e-42
1.11661e-41
8.24926e-41
5.07088e-40
2.51799e-39
9.70746e-39
2.75554e-38
5.40769e-38
7.18975e-38
7.90641e-38
8.10639e-38
8.14757e-38
8.14751e-38
8.10603e-38
7.90505e-38
7.18612e-38
5.40133e-38
2.74917e-38
9.67111e-39
2.5044e-39
5.03421e-40
8.17309e-41
1.10388e-41
1.26866e-42
1.26278e-43
1.10409e-44
8.57829e-46
5.97985e-47
3.77053e-48
2.1655e-49
1.13966e-50
5.52509e-52
2.47897e-53
1.03364e-54
4.02011e-56
1.46329e-57
4.99988e-59
1.60813e-60
4.88102e-62
1.40131e-63
3.81343e-65
9.85637e-67
2.42401e-68
5.68207e-70
1.27154e-71
2.72049e-73
5.57277e-75
1.09439e-76
2.06293e-78
3.737e-80
6.51273e-82
1.0931e-83
1.76868e-85
2.76145e-87
4.16404e-89
6.06952e-91
8.55872e-93
1.16847e-94
1.54563e-96
1.98235e-98
2.46682e-100
2.94518e-102
2.76275e-100
2.27827e-98
1.80237e-96
1.38349e-94
1.02969e-92
7.42547e-91
5.18443e-89
3.50186e-87
2.28645e-85
1.44183e-83
8.77331e-82
5.14635e-80
2.90728e-78
1.58004e-76
8.25202e-75
4.13668e-73
1.98794e-71
9.14614e-70
4.02296e-68
1.68917e-66
6.7597e-65
2.57372e-63
9.30623e-62
3.18935e-60
1.03375e-58
3.16158e-57
9.10054e-56
2.45868e-54
6.21574e-53
1.46548e-51
3.21036e-50
6.50741e-49
1.21484e-47
2.07775e-46
3.236e-45
4.55764e-44
5.75782e-43
6.46228e-42
6.36957e-41
5.43633e-40
3.94763e-39
2.38486e-38
1.16403e-37
4.41459e-37
1.23537e-36
2.40234e-36
3.19512e-36
3.51921e-36
3.61129e-36
3.63058e-36
3.63055e-36
3.61113e-36
3.51863e-36
3.19358e-36
2.39967e-36
1.23269e-36
4.39913e-37
1.15816e-37
2.36872e-38
3.91349e-39
5.37825e-40
6.28759e-41
6.36403e-42
5.65598e-43
4.46505e-44
3.16128e-45
2.0237e-46
1.17951e-47
6.29726e-49
3.0959e-50
1.40811e-51
5.94973e-53
2.34415e-54
8.64088e-56
2.98904e-57
9.72989e-59
2.98804e-60
8.67717e-62
2.38789e-63
6.23958e-65
1.55097e-66
3.67371e-68
8.30529e-70
1.79475e-71
3.71247e-73
7.36052e-75
1.40049e-76
2.5603e-78
4.50216e-80
7.62307e-82
1.24409e-83
1.95883e-85
2.97825e-87
4.37639e-89
6.2204e-91
8.55872e-93
1.14081e-94
1.47415e-96
1.84796e-98
2.22211e-100
2.00104e-98
1.63866e-96
1.28706e-94
9.80707e-93
7.24455e-91
5.18443e-89
3.59155e-87
2.40664e-85
1.55858e-83
9.74681e-82
5.8805e-80
3.41956e-78
1.91467e-76
1.03116e-74
5.33551e-73
2.64932e-71
1.26083e-69
5.74332e-68
2.50057e-66
1.03904e-64
4.11375e-63
1.54921e-61
5.53914e-60
1.87659e-58
6.01108e-57
1.81626e-55
5.16347e-54
1.37732e-52
3.43664e-51
7.99427e-50
1.72722e-48
3.4517e-47
6.35044e-46
1.06994e-44
1.64088e-43
2.27469e-42
2.82727e-41
3.12058e-40
3.02357e-39
2.53579e-38
1.8089e-37
1.07338e-36
5.14688e-36
1.91922e-35
5.29263e-35
1.01968e-34
1.35658e-34
1.49664e-34
1.53718e-34
1.54583e-34
1.54581e-34
1.53711e-34
1.4964e-34
1.35595e-34
1.01861e-34
5.28189e-35
1.91295e-35
5.12263e-36
1.06659e-36
1.79427e-37
2.51044e-38
2.98711e-39
3.07607e-40
2.78031e-41
2.23125e-42
1.60521e-43
1.04372e-44
6.17625e-46
3.34646e-47
1.66903e-48
7.69822e-50
3.29741e-51
1.31653e-52
4.91616e-54
1.72219e-55
5.67551e-57
1.76401e-58
5.18302e-60
1.44274e-61
3.81227e-63
9.58019e-65
2.29355e-66
5.23946e-68
1.14384e-69
2.38976e-71
4.78449e-73
9.1908e-75
1.69598e-76
3.0097e-78
5.14189e-80
8.46555e-82
1.34442e-83
2.06138e-85
3.0542e-87
4.37639e-89
6.06952e-91
8.15341e-93
1.06166e-94
1.34088e-96
1.62413e-98
1.4032e-96
1.14094e-94
8.89568e-93
6.72761e-91
4.9318e-89
3.50186e-87
2.40664e-85
1.59955e-83
1.0273e-81
6.36987e-80
3.8098e-78
2.19581e-76
1.21833e-74
6.50065e-73
3.33177e-71
1.63834e-69
7.71965e-68
3.48075e-66
1.49972e-64
6.16531e-63
2.41434e-61
8.99063e-60
3.17774e-58
1.06393e-56
3.36692e-55
1.00475e-53
2.82017e-52
7.42463e-51
1.82779e-49
4.19335e-48
8.93209e-47
1.75909e-45
3.18809e-44
5.28898e-43
7.98329e-42
1.08875e-40
1.33068e-39
1.4436e-38
1.37419e-37
1.13184e-36
7.92671e-36
4.61722e-35
2.17375e-34
7.96558e-34
2.16386e-33
4.12954e-33
5.49517e-33
6.07287e-33
6.24326e-33
6.2803e-33
6.28025e-33
6.24299e-33
6.07191e-33
5.49274e-33
4.12544e-33
2.15976e-33
7.94129e-34
2.16421e-34
4.59002e-35
7.86692e-36
1.12127e-36
1.35869e-37
1.42432e-38
1.30996e-39
1.06923e-40
7.82027e-42
5.16704e-43
3.10575e-44
1.70854e-45
8.64817e-47
4.04669e-48
1.75779e-49
7.1146e-51
2.69227e-52
9.55433e-54
3.18866e-55
1.00335e-56
2.98368e-58
8.40332e-60
2.24604e-61
5.70772e-63
1.38146e-64
3.18971e-66
7.0365e-68
1.48517e-69
3.00323e-71
5.82563e-73
1.08532e-74
1.94409e-76
3.35188e-78
5.56816e-80
8.92076e-82
1.37961e-83
2.06138e-85
2.97825e-87
4.16404e-89
5.63829e-91
7.39903e-93
9.41667e-95
1.14906e-96
9.51889e-95
7.68377e-93
5.94611e-91
4.4626e-89
3.24591e-87
2.28645e-85
1.55858e-83
1.0273e-81
6.5418e-80
4.02116e-78
2.38374e-76
1.36144e-74
7.48396e-73
3.95537e-71
2.0076e-69
9.7741e-68
4.55867e-66
2.03411e-64
8.67092e-63
3.5257e-61
1.36524e-59
5.02567e-58
1.75546e-56
5.80656e-55
1.81483e-53
5.34701e-52
1.48126e-50
3.84751e-49
9.3415e-48
2.11285e-46
4.43511e-45
8.60401e-44
1.53538e-42
2.50688e-41
3.72238e-40
4.99158e-39
5.99579e-38
6.38961e-37
5.97214e-36
4.82772e-35
3.31732e-34
1.8956e-33
8.75676e-33
3.15165e-32
8.43017e-32
1.59333e-31
2.12058e-31
2.34764e-31
2.41594e-31
2.43108e-31
2.43106e-31
2.41584e-31
2.34728e-31
2.11969e-31
1.59184e-31
8.41526e-32
3.14271e-32
8.72104e-33
1.88522e-33
3.29403e-34
4.78571e-35
5.9093e-36
6.30989e-37
5.90845e-38
4.90776e-39
3.6511e-40
2.45262e-41
1.4981e-42
8.37135e-44
4.30231e-45
2.04318e-46
9.00386e-48
3.69574e-49
1.41775e-50
5.09867e-52
1.72382e-53
5.49318e-55
1.65377e-56
4.71403e-58
1.27483e-59
3.27695e-61
8.0205e-63
1.87222e-64
4.17443e-66
8.90318e-68
1.81881e-69
3.56346e-71
6.70382e-73
1.21235e-74
2.10989e-76
3.53716e-78
5.71789e-80
8.92076e-82
1.34442e-83
1.95883e-85
2.76145e-87
3.76952e-89
4.98609e-91
6.39535e-93
7.863e-95
6.24154e-93
5.00105e-91
3.84055e-89
2.8599e-87
2.06363e-85
1.44183e-83
9.74681e-82
6.36987e-80
4.02116e-78
2.44986e-76
1.43912e-74
8.14325e-73
4.434e-71
2.32072e-69
1.16622e-67
5.62018e-66
2.59402e-64
1.14514e-62
4.82822e-61
1.94126e-59
7.4309e-58
2.7033e-56
9.32873e-55
3.04752e-53
9.404e-52
2.73457e-50
7.47403e-49
1.91463e-47
4.58283e-46
1.02146e-44
2.11209e-43
4.03432e-42
7.08515e-41
1.13796e-39
1.66135e-38
2.18932e-37
2.58302e-36
2.70239e-35
2.47848e-34
1.96512e-33
1.32396e-32
7.41676e-32
3.35966e-31
1.18692e-30
3.12477e-30
5.84792e-30
7.78375e-30
8.63282e-30
8.89351e-30
8.95243e-30
8.95236e-30
8.89313e-30
8.63155e-30
7.78063e-30
5.84277e-30
3.11963e-30
1.1838e-30
3.34695e-31
7.37907e-32
1.31533e-32
1.94921e-33
2.4542e-34
2.67096e-35
2.5479e-36
2.15495e-37
1.63157e-38
1.11488e-39
6.92376e-41
3.93185e-42
2.05262e-43
9.89758e-45
4.42676e-46
1.8434e-47
7.17149e-49
2.61457e-50
8.95808e-52
2.89185e-53
8.8169e-55
2.5444e-56
6.96412e-58
1.81125e-59
4.48417e-61
1.05851e-62
2.38604e-64
5.14352e-66
1.06177e-67
2.10158e-69
3.99326e-71
7.29241e-73
1.28129e-74
2.16821e-76
3.53716e-78
5.56816e-80
8.46555e-82
1.24409e-83
1.76868e-85
2.43435e-87
3.24619e-89
4.19687e-91
5.19985e-93
3.95235e-91
3.14296e-89
2.39483e-87
1.76915e-85
1.2662e-83
8.77331e-82
5.8805e-80
3.8098e-78
2.38374e-76
1.43912e-74
8.37555e-73
4.69439e-71
2.53132e-69
1.31173e-67
6.52487e-66
3.11173e-64
1.42094e-62
6.20438e-61
2.58667e-59
1.02809e-57
3.88915e-56
1.39778e-54
4.76388e-53
1.5365e-51
4.67949e-50
1.34251e-48
3.61877e-47
9.13902e-46
2.15566e-44
4.73278e-43
9.63515e-42
1.81122e-40
3.12892e-39
4.94085e-38
7.0883e-37
9.17415e-36
1.0625e-34
1.09059e-33
9.8082e-33
7.6222e-32
5.03153e-31
2.76125e-30
1.22566e-29
4.24776e-29
1.10017e-28
2.03831e-28
2.71306e-28
3.01465e-28
3.10922e-28
3.13104e-28
3.13101e-28
3.10909e-28
3.01422e-28
2.71202e-28
2.03663e-28
1.09849e-28
4.23743e-29
1.22138e-29
2.74827e-30
5.00114e-31
7.565e-32
9.71896e-33
1.07879e-33
1.04904e-34
9.03982e-36
6.96961e-37
4.84711e-38
3.06218e-39
1.76809e-40
9.38053e-42
4.59474e-43
2.08661e-44
8.81889e-46
3.48072e-47
1.28693e-48
4.46999e-50
1.46234e-51
4.51669e-53
1.32002e-54
3.65775e-56
9.62824e-58
2.41183e-59
5.75879e-61
1.31272e-62
2.86087e-64
5.96903e-66
1.19385e-67
2.29171e-69
4.22702e-71
7.49977e-73
1.28129e-74
2.10989e-76
3.35188e-78
5.14189e-80
7.62307e-82
1.0931e-83
1.51724e-85
2.04e-87
2.65887e-89
3.32023e-91
2.41476e-89
1.90548e-87
1.44036e-85
1.0554e-83
7.49092e-82
5.14635e-80
3.41956e-78
2.19581e-76
1.36144e-74
8.14325e-73
4.69439e-71
2.60565e-69
1.39109e-67
7.1354e-66
3.51242e-64
1.65725e-62
7.48507e-61
3.23174e-59
1.3319e-57
5.23153e-56
1.95515e-54
6.93996e-53
2.33521e-51
7.43354e-50
2.23357e-48
6.31968e-47
1.67936e-45
4.17936e-44
9.71029e-43
2.09901e-41
4.20535e-40
7.77586e-39
1.32065e-37
2.04918e-36
2.88715e-35
3.66776e-34
4.16703e-33
4.1935e-32
3.69559e-31
2.81281e-30
1.81787e-29
9.76573e-29
4.24455e-28
1.44212e-27
3.67283e-27
6.73517e-27
8.96391e-27
9.97968e-27
1.03052e-26
1.03819e-26
1.03818e-26
1.03048e-26
9.97831e-27
8.96068e-27
6.72998e-27
3.66763e-27
1.43889e-27
4.23087e-28
9.72338e-29
1.80773e-29
2.79329e-30
3.66443e-31
4.15139e-32
4.11797e-33
3.61778e-34
2.84209e-35
2.01289e-36
1.29432e-37
7.60259e-39
4.10124e-40
2.0416e-41
9.41824e-43
4.04177e-44
1.61909e-45
6.07331e-47
2.13932e-48
7.09505e-50
2.2208e-51
6.5751e-53
1.84513e-54
4.91717e-56
1.24663e-57
3.01174e-59
6.94434e-61
1.53043e-62
3.22823e-64
6.52596e-66
1.26586e-67
2.35879e-69
4.22702e-71
7.29241e-73
1.21235e-74
1.94409e-76
3.0097e-78
4.50216e-80
6.51273e-82
9.11778e-84
1.2363e-85
1.62471e-87
2.04513e-89
1.42209e-87
1.11335e-85
8.34747e-84
6.06573e-82
4.26877e-80
2.90728e-78
1.91467e-76
1.21833e-74
7.48396e-73
4.434e-71
2.53132e-69
1.39109e-67
7.35123e-66
3.73152e-64
1.81729e-62
8.48085e-61
3.7876e-59
1.61658e-57
6.58412e-56
2.55496e-54
9.43035e-53
3.30484e-51
1.09753e-49
3.44685e-48
1.02141e-46
2.84903e-45
7.46055e-44
1.82883e-42
4.18347e-41
8.89933e-40
1.75375e-38
3.18799e-37
5.32016e-36
8.10676e-35
1.12103e-33
1.39692e-32
1.55582e-31
1.53395e-30
1.32363e-29
9.85935e-29
6.23332e-28
3.27524e-27
1.39281e-26
4.63603e-26
1.16045e-25
2.10582e-25
2.80211e-25
3.12587e-25
3.232e-25
3.25757e-25
3.25754e-25
3.23187e-25
3.12546e-25
2.80115e-25
2.10431e-25
1.15894e-25
4.62646e-26
1.38869e-26
3.26218e-27
6.2013e-28
9.7962e-29
1.31332e-29
1.51969e-30
1.53884e-31
1.37924e-32
1.10476e-33
7.97307e-35
5.22127e-36
3.12166e-37
1.71316e-38
8.67147e-40
4.06556e-41
1.77235e-42
7.20909e-44
2.74463e-45
9.80854e-47
3.29903e-48
1.04684e-49
3.14092e-51
8.92928e-53
2.40988e-54
6.18547e-56
1.51243e-57
3.52846e-59
7.86581e-61
1.67784e-62
3.42905e-64
6.7228e-66
1.26586e-67
2.29171e-69
3.99326e-71
6.70382e-73
1.08532e-74
1.69598e-76
2.5603e-78
3.737e-80
5.27787e-82
7.21816e-84
9.56614e-86
1.21401e-87
8.0643e-86
6.26286e-84
4.65669e-82
3.35512e-80
2.34071e-78
1.58004e-76
1.03116e-74
6.50065e-73
3.95537e-71
2.32072e-69
1.31173e-67
7.1354e-66
3.73152e-64
1.87396e-62
9.02683e-61
4.16549e-59
1.83901e-57
7.75676e-56
3.12112e-54
1.19615e-52
4.3589e-51
1.50762e-49
4.93963e-48
1.52994e-46
4.46943e-45
1.22849e-43
3.16867e-42
7.64743e-41
1.72152e-39
3.60204e-38
6.97834e-37
1.2464e-35
2.04257e-34
3.05462e-33
4.14304e-32
5.06051e-31
5.52108e-30
5.32894e-29
4.49879e-28
3.27668e-27
2.02478e-26
1.03969e-25
4.3223e-25
1.40842e-24
3.46315e-24
6.2175e-24
8.27073e-24
9.24538e-24
9.57245e-24
9.65306e-24
9.65298e-24
9.57207e-24
9.24421e-24
8.26806e-24
6.21334e-24
3.45898e-24
1.40576e-24
4.31057e-25
1.03589e-25
2.01523e-26
3.25738e-27
4.4665e-28
5.28323e-29
5.46536e-30
5.0012e-31
4.08727e-32
3.00782e-33
2.00725e-34
1.22224e-35
6.82766e-37
3.51589e-38
1.67614e-39
7.4263e-41
3.06856e-42
1.18625e-43
4.30275e-45
1.46825e-46
4.72496e-48
1.4372e-49
4.14058e-51
1.13208e-52
2.9427e-54
7.28457e-56
1.72004e-57
3.87964e-59
8.37092e-61
1.73003e-62
3.42905e-64
6.52596e-66
1.19385e-67
2.10158e-69
3.56346e-71
5.82563e-73
9.1908e-75
1.40049e-76
2.06293e-78
2.93976e-80
4.05592e-82
5.42167e-84
6.93798e-86
4.39869e-84
3.3881e-82
2.49783e-80
1.78408e-78
1.23365e-76
8.25202e-75
5.33551e-73
3.33177e-71
2.0076e-69
1.16622e-67
6.52487e-66
3.51242e-64
1.81729e-62
9.02683e-61
4.29957e-59
1.96132e-57
8.55715e-56
3.56578e-54
1.41702e-52
5.36163e-51
1.92832e-49
6.58008e-48
2.1262e-46
6.49203e-45
1.86886e-43
5.05972e-42
1.28489e-40
3.05163e-39
6.75675e-38
1.38982e-36
2.64551e-35
4.63996e-34
7.46231e-33
1.09451e-31
1.45503e-30
1.74078e-29
1.85898e-28
1.75509e-27
1.44836e-26
1.03057e-25
6.21857e-25
3.11757e-24
1.2659e-23
4.03498e-23
9.74097e-23
1.72981e-22
2.30003e-22
2.57654e-22
2.67162e-22
2.69561e-22
2.69559e-22
2.67151e-22
2.57623e-22
2.29933e-22
1.72874e-22
9.73023e-23
4.02801e-23
1.26276e-23
3.10716e-24
6.19173e-25
1.025e-25
1.43881e-26
1.74123e-27
1.84169e-28
1.72194e-29
1.4369e-30
1.07897e-31
7.34253e-33
4.55635e-34
2.59234e-35
1.35884e-36
6.59055e-38
2.96918e-39
1.24692e-40
4.89681e-42
1.80353e-43
6.24643e-45
2.03941e-46
6.29111e-48
1.83744e-49
5.09114e-51
1.34067e-52
3.36103e-54
8.03455e-56
1.83417e-57
4.00422e-59
8.37092e-61
1.67784e-62
3.22823e-64
5.96903e-66
1.06177e-67
1.81881e-69
3.00323e-71
4.78449e-73
7.36052e-75
1.09439e-76
1.57387e-78
2.19097e-80
2.95454e-82
3.81309e-84
2.30515e-82
1.76068e-80
1.2868e-78
9.10955e-77
6.24199e-75
4.13668e-73
2.64932e-71
1.63834e-69
9.7741e-68
5.62018e-66
3.11173e-64
1.65725e-62
8.48085e-61
4.16549e-59
1.96132e-57
8.84169e-56
3.81106e-54
1.56841e-52
6.15355e-51
2.29794e-49
8.15374e-48
2.74397e-46
8.74073e-45
2.62992e-43
7.45704e-42
1.98767e-40
4.96715e-39
1.16032e-37
2.52559e-36
5.10414e-35
9.54029e-34
1.64207e-32
2.59e-31
3.72314e-30
4.84755e-29
5.67608e-28
5.92814e-27
5.4697e-26
4.40815e-25
3.06127e-24
1.80198e-23
8.81126e-23
3.4912e-22
1.08764e-21
2.57645e-21
4.52443e-21
6.01234e-21
6.74989e-21
7.00999e-21
7.07727e-21
7.07721e-21
7.00973e-21
6.74911e-21
6.01063e-21
4.52183e-21
2.57385e-21
1.08593e-21
3.48333e-22
8.78445e-23
1.79488e-23
3.04616e-24
4.38154e-25
5.43009e-26
5.87744e-27
5.61949e-28
4.79184e-29
3.67428e-30
2.55151e-31
1.61463e-32
9.36225e-34
4.99835e-35
2.46775e-36
1.1311e-37
4.83015e-39
1.92787e-40
7.21318e-42
2.53675e-43
8.40629e-45
2.6309e-46
7.79286e-48
2.18897e-49
5.84162e-51
1.48362e-52
3.59173e-54
8.30114e-56
1.83417e-57
3.87964e-59
7.86581e-61
1.53043e-62
2.86087e-64
5.14352e-66
8.90318e-68
1.48517e-69
2.38976e-71
3.71247e-73
5.57277e-75
8.0896e-77
1.13649e-78
1.54635e-80
2.01307e-82
1.15922e-80
8.77846e-79
6.35892e-77
4.46088e-75
3.02835e-73
1.98794e-71
1.26083e-69
7.71965e-68
4.55867e-66
2.59402e-64
1.42094e-62
7.48507e-61
3.7876e-59
1.83901e-57
8.55715e-56
3.81106e-54
1.62235e-52
6.59181e-51
2.55248e-49
9.40394e-48
3.29076e-46
1.09173e-44
3.42687e-43
1.01559e-41
2.83511e-40
7.43651e-39
1.82782e-37
4.19737e-36
8.9762e-35
1.78128e-33
3.26726e-32
5.51502e-31
8.52506e-30
1.20017e-28
1.52923e-27
1.75099e-26
1.78691e-25
1.60974e-24
1.2657e-23
8.56966e-23
4.91562e-22
2.34185e-21
9.04493e-21
2.7517e-20
6.39219e-20
1.10976e-19
1.47361e-19
1.65811e-19
1.72491e-19
1.74264e-19
1.74262e-19
1.72485e-19
1.65793e-19
1.47322e-19
1.10917e-19
6.38632e-20
2.74778e-20
9.02646e-21
2.33539e-21
4.89804e-22
8.53117e-23
1.25873e-23
1.59909e-24
1.77291e-25
1.73497e-26
1.51306e-27
1.18566e-28
8.40811e-30
5.42982e-31
3.21079e-32
1.74703e-33
8.78527e-35
4.09905e-36
1.78087e-37
7.2279e-39
2.74857e-40
9.81968e-42
3.30422e-43
1.0496e-44
3.15425e-46
8.98558e-48
2.43098e-49
6.25687e-51
1.53454e-52
3.59173e-54
8.03455e-56
1.72004e-57
3.52846e-59
6.94434e-61
1.31272e-62
2.38604e-64
4.17443e-66
7.0365e-68
1.14384e-69
1.79475e-71
2.72049e-73
3.98702e-75
5.65385e-77
7.76352e-79
1.01964e-80
5.58682e-79
4.19376e-77
3.01036e-75
2.09226e-73
1.40692e-71
9.14614e-70
5.74332e-68
3.48075e-66
2.03411e-64
1.14514e-62
6.20438e-61
3.23174e-59
1.61658e-57
7.75676e-56
3.56578e-54
1.56841e-52
6.59181e-51
2.64336e-49
1.00983e-47
3.66914e-46
1.26574e-44
4.13788e-43
1.27934e-41
3.73278e-40
1.02542e-38
2.64545e-37
6.39193e-36
1.44212e-34
3.02824e-33
5.89703e-32
1.06074e-30
1.75467e-29
2.6562e-28
3.65925e-27
4.55897e-26
5.1e-25
5.08063e-24
4.46413e-23
3.42077e-22
2.25555e-21
1.25929e-20
5.83838e-20
2.19566e-19
6.51682e-19
1.48362e-18
2.5458e-18
3.37734e-18
3.80898e-18
3.96961e-18
4.01338e-18
4.01335e-18
3.96946e-18
3.80858e-18
3.3765e-18
2.54456e-18
1.48239e-18
6.50843e-19
2.19162e-19
5.82384e-20
1.25522e-20
2.24636e-21
3.40365e-22
4.43721e-23
5.04428e-24
5.05729e-25
4.51478e-26
3.6186e-27
2.62265e-28
1.72968e-29
1.0438e-30
5.79216e-32
2.96856e-33
1.41078e-34
6.23941e-36
2.57642e-37
9.96272e-39
3.61757e-40
1.2366e-41
3.9887e-43
1.21663e-44
3.51632e-46
9.64787e-48
2.51739e-49
6.25687e-51
1.48362e-52
3.36103e-54
7.28457e-56
1.51243e-57
3.01174e-59
5.75879e-61
1.05851e-62
1.87222e-64
3.18971e-66
5.23946e-68
8.30529e-70
1.27154e-71
1.88176e-73
2.69405e-75
3.73402e-77
4.94865e-79
2.5769e-77
1.91707e-75
1.36337e-73
9.38599e-72
6.25036e-70
4.02296e-68
2.50057e-66
1.49972e-64
8.67092e-63
4.82822e-61
2.58667e-59
1.3319e-57
6.58412e-56
3.12112e-54
1.41702e-52
6.15355e-51
2.55248e-49
1.00983e-47
3.80458e-46
1.36276e-44
4.63248e-43
1.49166e-41
4.54049e-40
1.30366e-38
3.52234e-37
8.93291e-36
2.12055e-34
4.69769e-33
9.67986e-32
1.84852e-30
3.25845e-29
5.27833e-28
7.81851e-27
1.0531e-25
1.28172e-24
1.39947e-23
1.35953e-22
1.16384e-21
8.68127e-21
5.56767e-20
3.02174e-19
1.36162e-18
4.98007e-18
1.44059e-17
3.21202e-17
5.446e-17
7.21666e-17
8.1583e-17
8.51888e-17
8.61991e-17
8.61984e-17
8.51858e-17
8.15748e-17
7.215e-17
5.44358e-17
3.20961e-17
1.43893e-17
4.97184e-18
1.35858e-18
3.01294e-19
5.54721e-20
8.64196e-21
1.15747e-21
1.35068e-22
1.38879e-23
1.27036e-24
1.04239e-25
7.72792e-27
5.20921e-28
3.21055e-29
1.8182e-30
9.50361e-32
4.60323e-33
2.07366e-34
8.71664e-36
3.42931e-37
1.26623e-38
4.39924e-40
1.44152e-41
4.46474e-43
1.30973e-44
3.6459e-46
9.64787e-48
2.43098e-49
5.84162e-51
1.34067e-52
2.9427e-54
6.18547e-56
1.24663e-57
2.41183e-59
4.48417e-61
8.0205e-63
1.38146e-64
2.29355e-66
3.67371e-68
5.68207e-70
8.49322e-72
1.22786e-73
1.71816e-75
2.29815e-77
1.13587e-75
8.37304e-74
5.89832e-72
4.0213e-70
2.65133e-68
1.68917e-66
1.03904e-64
6.16531e-63
3.5257e-61
1.94126e-59
1.02809e-57
5.23153e-56
2.55496e-54
1.19615e-52
5.36163e-51
2.29794e-49
9.40394e-48
3.66914e-46
1.36276e-44
4.80998e-43
1.6105e-41
5.10554e-40
1.52929e-38
4.31863e-37
1.14703e-35
2.85796e-34
6.66153e-33
1.44811e-31
2.92611e-30
5.47582e-29
9.45188e-28
1.49813e-26
2.16953e-25
2.85447e-24
3.39054e-23
3.60953e-22
3.41558e-21
2.84532e-20
2.06335e-19
1.28542e-18
6.77233e-18
2.96191e-17
1.05218e-16
2.9632e-16
6.46604e-16
1.08294e-15
1.43309e-15
1.62401e-15
1.69934e-15
1.72107e-15
1.72105e-15
1.69928e-15
1.62386e-15
1.43278e-15
1.0825e-15
6.46167e-16
2.96014e-16
1.05063e-16
2.95599e-17
6.75467e-18
1.28118e-18
2.05494e-19
2.83126e-20
3.39544e-21
3.5845e-22
3.3632e-23
2.82797e-24
2.14654e-25
1.48015e-26
9.32432e-28
5.3932e-29
2.87703e-30
1.42124e-31
6.52543e-33
2.79394e-34
1.11896e-35
4.2036e-37
1.4851e-38
4.94596e-40
1.55621e-41
4.63557e-43
1.30973e-44
3.51632e-46
8.98558e-48
2.18897e-49
5.09114e-51
1.13208e-52
2.40988e-54
4.91717e-56
9.62824e-58
1.81125e-59
3.27695e-61
5.70772e-63
9.58019e-65
1.55097e-66
2.42401e-68
3.66038e-70
5.3448e-72
7.55233e-74
1.01973e-75
4.77724e-74
3.48864e-72
2.43374e-70
1.64281e-68
1.07215e-66
6.7597e-65
4.11375e-63
2.41434e-61
1.36524e-59
7.4309e-58
3.88915e-56
1.95515e-54
9.43035e-53
4.3589e-51
1.92832e-49
8.15374e-48
3.29076e-46
1.26574e-44
4.63248e-43
1.6105e-41
5.3089e-40
1.65614e-38
4.8791e-37
1.35443e-35
3.5343e-34
8.64658e-33
1.97765e-31
4.21575e-30
8.34755e-29
1.52964e-27
2.58339e-26
4.00304e-25
5.66231e-24
7.27005e-23
8.4186e-22
8.72848e-21
8.03546e-20
6.50542e-19
4.58001e-18
2.76749e-17
1.41328e-16
5.99018e-16
2.06387e-15
5.65205e-15
1.20614e-14
1.99475e-14
2.63547e-14
2.99399e-14
3.13991e-14
3.1833e-14
3.18328e-14
3.13981e-14
2.99372e-14
2.63495e-14
1.99402e-14
1.20542e-14
5.64686e-15
2.06117e-15
5.97954e-16
1.41e-16
2.75933e-17
4.56327e-18
6.47651e-19
7.99275e-20
8.67374e-21
8.35705e-22
7.2087e-23
5.60765e-24
3.95918e-25
2.55149e-26
1.50849e-27
8.21897e-29
4.1438e-30
1.94042e-31
8.46784e-33
3.45439e-34
1.32105e-35
4.74848e-37
1.60813e-38
5.14271e-40
1.55621e-41
4.46474e-43
1.21663e-44
3.15425e-46
7.79286e-48
1.83744e-49
4.14058e-51
8.92928e-53
1.84513e-54
3.65775e-56
6.96412e-58
1.27483e-59
2.24604e-61
3.81227e-63
6.23958e-65
9.85637e-67
1.50396e-68
2.21855e-70
3.16626e-72
4.31648e-74
1.91389e-72
1.38429e-70
9.56135e-69
6.38854e-67
4.12605e-65
2.57372e-63
1.54921e-61
8.99063e-60
5.02567e-58
2.7033e-56
1.39778e-54
6.93996e-53
3.30484e-51
1.50762e-49
6.58008e-48
2.74397e-46
1.09173e-44
4.13788e-43
1.49166e-41
5.10554e-40
1.65614e-38
5.08142e-37
1.47159e-35
4.01348e-34
1.02831e-32
2.46859e-31
5.53666e-30
1.15655e-28
2.24239e-27
4.02033e-26
6.63769e-25
1.00458e-23
1.38657e-22
1.73543e-21
1.95691e-20
1.97355e-19
1.76524e-18
1.3869e-17
9.46508e-17
5.5385e-16
2.73694e-15
1.12235e-14
3.74472e-14
9.95971e-14
2.07686e-13
3.39052e-13
4.47109e-13
5.09209e-13
5.35326e-13
5.43342e-13
5.43338e-13
5.35309e-13
5.09166e-13
4.47028e-13
3.38941e-13
2.07575e-13
9.95165e-14
3.74041e-14
1.12059e-14
2.73131e-15
5.52399e-16
9.43424e-17
1.38139e-17
1.75682e-18
1.96241e-19
1.94399e-20
1.72217e-21
1.37443e-22
9.94567e-24
6.56297e-25
3.96954e-26
2.21078e-27
1.13845e-28
5.44094e-30
2.42165e-31
1.00689e-32
3.92223e-34
1.4352e-35
4.94515e-37
1.60813e-38
4.94596e-40
1.44152e-41
3.9887e-43
1.0496e-44
2.6309e-46
6.29111e-48
1.4372e-49
3.14092e-51
6.5751e-53
1.32002e-54
2.5444e-56
4.71403e-58
8.40332e-60
1.44274e-61
2.38789e-63
3.81343e-65
5.88123e-67
8.76648e-69
1.26395e-70
1.74013e-72
7.29062e-71
5.22165e-69
3.57003e-67
2.36059e-65
1.50837e-63
9.30623e-62
5.53914e-60
3.17774e-58
1.75546e-56
9.32873e-55
4.76388e-53
2.33521e-51
1.09753e-49
4.93963e-48
2.1262e-46
8.74073e-45
3.42687e-43
1.27934e-41
4.54049e-40
1.52929e-38
4.8791e-37
1.47159e-35
4.18702e-34
1.12123e-32
2.81891e-31
6.63586e-30
1.45841e-28
2.98301e-27
5.65868e-26
9.91765e-25
1.59924e-23
2.36165e-22
3.17734e-21
3.87209e-20
4.24647e-19
4.16008e-18
3.61e-17
2.7482e-16
1.81504e-15
1.02667e-14
4.90043e-14
1.94068e-13
6.25968e-13
1.61466e-12
3.28729e-12
5.29536e-12
6.96755e-12
7.95549e-12
8.38549e-12
8.52192e-12
8.52186e-12
8.38523e-12
7.95486e-12
6.9664e-12
5.29381e-12
3.28574e-12
1.61352e-12
6.25337e-13
1.93801e-13
4.89158e-14
1.0243e-14
1.80981e-15
2.73849e-16
3.59463e-17
4.13904e-18
4.22128e-19
3.84544e-20
3.15219e-21
2.34033e-22
1.5829e-23
9.80362e-25
5.58593e-26
2.94036e-27
1.43534e-28
6.52016e-30
2.76498e-31
1.09778e-32
4.09165e-34
1.4352e-35
4.74848e-37
1.4851e-38
4.39924e-40
1.2366e-41
3.30422e-43
8.40629e-45
2.03941e-46
4.72496e-48
1.04684e-49
2.2208e-51
4.51669e-53
8.8169e-55
1.65377e-56
2.98368e-58
5.18302e-60
8.67717e-62
1.40131e-63
2.18486e-65
3.29164e-67
4.79558e-69
6.669e-71
2.63558e-69
1.86876e-67
1.2644e-65
8.27155e-64
5.22775e-62
3.18935e-60
1.87659e-58
1.06393e-56
5.80656e-55
3.04752e-53
1.5365e-51
7.43354e-50
3.44685e-48
1.52994e-46
6.49203e-45
2.62992e-43
1.01559e-41
3.73278e-40
1.30366e-38
4.31863e-37
1.35443e-35
4.01348e-34
1.12123e-32
2.94623e-31
7.26345e-30
1.67549e-28
3.60562e-27
7.21541e-26
1.338e-24
2.29028e-23
3.6034e-22
5.18656e-21
6.79382e-20
8.05135e-19
8.5759e-18
8.14908e-17
6.8497e-16
5.04385e-15
3.21778e-14
1.75599e-13
8.0791e-13
3.08353e-12
9.59698e-12
2.39725e-11
4.76063e-11
7.56363e-11
9.92645e-11
1.13629e-10
1.20111e-10
1.22241e-10
1.2224e-10
1.20107e-10
1.13621e-10
9.92497e-11
7.56166e-11
4.75866e-11
2.39578e-11
9.58859e-12
3.07985e-12
8.06636e-13
1.75244e-13
3.20961e-14
5.0281e-15
6.82383e-16
8.11238e-17
8.53044e-18
8.00165e-19
6.74544e-20
5.14433e-21
3.57009e-22
2.26642e-23
1.32237e-24
7.1215e-26
3.55359e-27
1.6488e-28
7.13628e-30
2.88975e-31
1.09778e-32
3.92223e-34
1.32105e-35
4.2036e-37
1.26623e-38
3.61757e-40
9.81968e-42
2.53675e-43
6.24643e-45
1.46825e-46
3.29903e-48
7.09505e-50
1.46234e-51
2.89185e-53
5.49318e-55
1.00335e-56
1.76401e-58
2.98804e-60
4.88102e-62
7.6958e-64
1.17214e-65
1.72599e-67
2.42505e-69
9.02273e-68
6.33206e-66
4.2387e-64
2.7427e-62
1.71407e-60
1.03375e-58
6.01108e-57
3.36692e-55
1.81483e-53
9.404e-52
4.67949e-50
2.23357e-48
1.02141e-46
4.46943e-45
1.86886e-43
7.45704e-42
2.83511e-40
1.02542e-38
3.52234e-37
1.14703e-35
3.5343e-34
1.02831e-32
2.81891e-31
7.26345e-30
1.75469e-28
3.96326e-27
8.34439e-26
1.63232e-24
2.95619e-23
4.93708e-22
7.57082e-21
1.06089e-19
1.35128e-18
1.55517e-17
1.60647e-16
1.47827e-15
1.20146e-14
8.54118e-14
5.25252e-13
2.75929e-12
1.2209e-11
4.48061e-11
1.34276e-10
3.24271e-10
6.27509e-10
9.82829e-10
1.286e-09
1.47585e-09
1.56483e-09
1.59516e-09
1.59515e-09
1.56478e-09
1.47575e-09
1.28583e-09
9.82605e-10
6.27284e-10
3.24099e-10
1.34175e-10
4.47601e-11
1.21923e-11
2.75444e-12
5.24088e-13
8.51777e-14
1.19746e-14