/*--------------------------------*- C++ -*----------------------------------*\
  =========                 |
  \\      /  F ield         | OpenFOAM: The Open Source CFD Toolbox
   \\    /   O peration     | Website:  https://openfoam.org
    \\  /    A nd           | Version:  10
     \\/     M anipulation  |
\*---------------------------------------------------------------------------*/
FoamFile
{
    format      ascii;
    class       volScalarField;
    location    "40";
    object      h;
}
// * * * * * * * * * * * * * * * * * * * * * * * * * * * * * * * * * * * * * //

dimensions      [0 1 0 0 0 0 0];

internalField   nonuniform List<scalar> 
10000
(
-9.50745e-05
-0.000129193
-0.000173461
-0.000229309
-0.000182535
-0.000397143
-0.000727566
-0.00111844
-0.00173282
-0.00236283
-0.00308017
-0.00391254
-0.00444314
-0.00453402
-0.00405043
-0.00251583
-0.000150852
0.00257049
0.0051381
0.00668752
0.0067914
0.00544991
0.00334741
0.0013338
0.00018742
-0.000193446
-0.000774583
-0.00227253
-0.00496343
-0.00751895
-0.00830301
-0.00646159
-0.00317142
-0.000622785
-0.000446154
-0.00256149
-0.00504998
-0.0061172
-0.00526931
-0.00391322
-0.00337765
-0.00395047
-0.00467504
-0.00505034
-0.00509333
-0.00494785
-0.00454613
-0.0043174
-0.00470156
-0.00532597
-0.00532595
-0.00470152
-0.0043174
-0.00454617
-0.00494789
-0.00509333
-0.00505032
-0.00467506
-0.0039505
-0.00337765
-0.00391322
-0.00526935
-0.0061173
-0.00505002
-0.0025614
-0.000445955
-0.00062264
-0.00317143
-0.00646175
-0.00830317
-0.00751894
-0.00496322
-0.00227222
-0.000774367
-0.00019338
0.000187352
0.00133373
0.00334745
0.00545006
0.00679162
0.00668771
0.00513819
0.00257046
-0.000150956
-0.002516
-0.0040506
-0.00453408
-0.00444316
-0.00391253
-0.0030801
-0.00236279
-0.00173282
-0.00111841
-0.000727537
-0.00039706
-0.000182436
-0.000229337
-0.000173508
-0.000129253
-9.51352e-05
-0.000129193
-6.89946e-05
-0.000223432
-0.000604987
-0.000782551
-0.00148064
-0.00230246
-0.00331955
-0.00513253
-0.0071602
-0.00946285
-0.0120059
-0.013633
-0.0138446
-0.0121493
-0.00746079
-0.000462276
0.00763947
0.0153287
0.0199577
0.0201705
0.0160801
0.00968672
0.00357649
-4.58522e-05
-0.00146378
-0.00338853
-0.00795674
-0.0157862
-0.0231377
-0.0252434
-0.0197603
-0.0100238
-0.00243669
-0.0017558
-0.00766104
-0.0146907
-0.0177023
-0.0153596
-0.0114561
-0.00983202
-0.0113705
-0.0135
-0.0146279
-0.0147548
-0.0143112
-0.0132234
-0.0126339
-0.0137153
-0.0154289
-0.0154289
-0.0137152
-0.0126339
-0.0132236
-0.0143113
-0.0147547
-0.0146278
-0.0135
-0.0113706
-0.00983195
-0.011456
-0.0153596
-0.0177025
-0.0146907
-0.00766073
-0.00175527
-0.00243634
-0.0100239
-0.0197608
-0.0252439
-0.0231378
-0.0157858
-0.00795607
-0.00338812
-0.00146374
-4.61285e-05
0.00357627
0.00968686
0.0160806
0.0201713
0.0199584
0.0153291
0.00763948
-0.000462515
-0.0074612
-0.0121497
-0.0138448
-0.0136331
-0.0120059
-0.0094627
-0.00716007
-0.0051324
-0.00331932
-0.0023024
-0.00148059
-0.000782425
-0.000605002
-0.000223336
-6.89148e-05
-0.000129251
-0.000173461
-0.000223432
-0.000519672
-0.00107564
-0.00152015
-0.00260615
-0.0039588
-0.00581001
-0.0087927
-0.0122147
-0.0161253
-0.0202216
-0.022925
-0.0233678
-0.0204795
-0.0128919
-0.00157512
0.0116492
0.024108
0.0316426
0.0320504
0.0256447
0.0153991
0.00554422
-0.000572897
-0.00342462
-0.00704355
-0.0148866
-0.0274158
-0.0390157
-0.0422579
-0.0337808
-0.0185909
-0.00672492
-0.00561576
-0.014511
-0.0251969
-0.0299141
-0.0267933
-0.0209582
-0.0182774
-0.0203309
-0.0236787
-0.0255095
-0.025652
-0.024853
-0.0233381
-0.0226006
-0.0241414
-0.0264894
-0.0264893
-0.0241412
-0.0226006
-0.0233382
-0.0248531
-0.0256518
-0.0255093
-0.0236787
-0.0203309
-0.0182774
-0.0209581
-0.0267933
-0.0299142
-0.0251968
-0.0145107
-0.00561515
-0.00672452
-0.0185911
-0.0337815
-0.0422586
-0.0390158
-0.0274152
-0.0148856
-0.00704289
-0.00342452
-0.000573225
0.00554397
0.0153993
0.0256455
0.0320516
0.0316436
0.0241087
0.0116492
-0.00157552
-0.0128926
-0.0204802
-0.0233682
-0.0229252
-0.0202217
-0.0161251
-0.0122144
-0.00879248
-0.00580966
-0.00395861
-0.00260605
-0.00152001
-0.00107563
-0.000519573
-0.000223337
-0.000173506
-0.000229309
-0.000604987
-0.00107564
-0.00165663
-0.00245034
-0.00391593
-0.00598583
-0.00894183
-0.0129881
-0.0177557
-0.0232735
-0.0287456
-0.0324768
-0.033197
-0.0291644
-0.0190034
-0.00376515
0.0140905
0.0306009
0.0406426
0.04133
0.0331503
0.0197191
0.00662022
-0.00196391
-0.00673739
-0.0125019
-0.0237055
-0.0401571
-0.0549682
-0.0589526
-0.0482571
-0.0290755
-0.0140661
-0.0125772
-0.0232512
-0.0362645
-0.0423735
-0.0394395
-0.0326717
-0.0291035
-0.0311648
-0.0354071
-0.0378785
-0.0379842
-0.0368558
-0.0352967
-0.0347199
-0.0363885
-0.0387532
-0.0387531
-0.0363883
-0.0347199
-0.0352969
-0.0368559
-0.0379841
-0.0378783
-0.0354071
-0.031165
-0.0291036
-0.0326717
-0.0394394
-0.0423736
-0.0362644
-0.023251
-0.0125767
-0.0140657
-0.0290756
-0.0482578
-0.0589533
-0.0549682
-0.0401563
-0.0237044
-0.012501
-0.00673717
-0.00196421
0.00661993
0.0197194
0.0331512
0.0413313
0.0406438
0.0306016
0.0140905
-0.00376565
-0.0190042
-0.0291652
-0.0331975
-0.032477
-0.0287456
-0.0232732
-0.0177553
-0.0129879
-0.00894152
-0.00598552
-0.00391567
-0.00245008
-0.00165652
-0.00107563
-0.000605004
-0.000229336
-0.000182535
-0.000782551
-0.00152015
-0.00245034
-0.00397478
-0.00595075
-0.00867684
-0.0126162
-0.0177383
-0.0241006
-0.0313603
-0.0382089
-0.0430098
-0.0438792
-0.0385266
-0.0259732
-0.00729793
0.0145817
0.0345483
0.046824
0.0478703
0.0383229
0.0223792
0.00647006
-0.0047913
-0.0122826
-0.0209814
-0.035651
-0.0551237
-0.0717985
-0.0758855
-0.0636191
-0.0420135
-0.0250478
-0.022895
-0.0336257
-0.0471188
-0.0539681
-0.0519121
-0.045214
-0.0409643
-0.0424601
-0.0469812
-0.0498463
-0.0498258
-0.0484528
-0.0472241
-0.0470837
-0.0485027
-0.0502422
-0.0502421
-0.0485026
-0.0470838
-0.0472243
-0.0484528
-0.0498256
-0.0498461
-0.0469812
-0.0424603
-0.0409645
-0.0452139
-0.0519119
-0.0539679
-0.0471188
-0.0336256
-0.0228948
-0.0250475
-0.0420136
-0.0636197
-0.0758862
-0.0717986
-0.0551231
-0.03565
-0.0209806
-0.0122824
-0.0047916
0.00646974
0.0223795
0.0383239
0.0478717
0.0468254
0.0345492
0.0145818
-0.00729844
-0.025974
-0.0385275
-0.0438799
-0.0430101
-0.0382089
-0.0313601
-0.0241001
-0.0177378
-0.0126158
-0.00867644
-0.00595053
-0.00397461
-0.00245008
-0.00152
-0.000782424
-0.000182435
-0.000397143
-0.00148064
-0.00260615
-0.00391593
-0.00595075
-0.00847651
-0.0121288
-0.0172754
-0.0237093
-0.0316837
-0.0404604
-0.0485494
-0.0543454
-0.0553278
-0.0489712
-0.0345559
-0.0130401
0.0120828
0.0347345
0.0488714
0.0505909
0.0405729
0.023415
0.0056776
-0.00808526
-0.018755
-0.0310379
-0.0491108
-0.0707303
-0.0880282
-0.0917224
-0.0788096
-0.0567908
-0.0395367
-0.0366487
-0.04595
-0.0582434
-0.0651978
-0.0645112
-0.0589317
-0.0544753
-0.0549889
-0.0590013
-0.0618189
-0.0615816
-0.0600902
-0.0594653
-0.0599011
-0.0607134
-0.061295
-0.061295
-0.0607135
-0.0599012
-0.0594655
-0.0600902
-0.0615814
-0.0618189
-0.0590015
-0.0549892
-0.0544756
-0.0589317
-0.0645111
-0.0651977
-0.0582435
-0.0459503
-0.0366489
-0.0395367
-0.0567908
-0.0788101
-0.0917229
-0.0880284
-0.0707298
-0.0491099
-0.0310371
-0.0187546
-0.00808538
0.00567737
0.0234152
0.0405738
0.0505922
0.0488727
0.0347354
0.012083
-0.0130407
-0.0345568
-0.0489721
-0.0553286
-0.0543456
-0.0485493
-0.0404602
-0.0316832
-0.0237087
-0.0172749
-0.0121282
-0.0084761
-0.00595053
-0.00391567
-0.00260605
-0.00148059
-0.000397061
-0.000727566
-0.00230246
-0.0039588
-0.00598583
-0.00867684
-0.0121288
-0.0170297
-0.0234099
-0.0312609
-0.040806
-0.0509835
-0.060359
-0.0669739
-0.0677916
-0.0605128
-0.0444336
-0.0205085
0.00695014
0.0313772
0.0468688
0.0494237
0.0396798
0.0224287
0.00378236
-0.0122257
-0.0263367
-0.0425409
-0.0635807
-0.0861516
-0.102525
-0.104891
-0.0917891
-0.0709623
-0.0547264
-0.0508041
-0.0572263
-0.0667232
-0.0729117
-0.0736409
-0.0700538
-0.0661143
-0.0655184
-0.068276
-0.0705657
-0.0701251
-0.0687547
-0.0689397
-0.0700032
-0.0699972
-0.0691343
-0.0691344
-0.0699973
-0.0700033
-0.0689397
-0.0687547
-0.0701251
-0.0705658
-0.0682765
-0.0655189
-0.0661146
-0.0700538
-0.0736407
-0.0729116
-0.0667236
-0.057227
-0.0508047
-0.0547265
-0.0709621
-0.0917891
-0.104891
-0.102525
-0.0861514
-0.0635801
-0.0425402
-0.0263363
-0.0122258
0.00378202
0.0224286
0.0396804
0.0494248
0.0468699
0.031378
0.00695036
-0.020509
-0.0444345
-0.0605137
-0.0677924
-0.0669742
-0.0603589
-0.0509832
-0.0408054
-0.0312603
-0.0234094
-0.0170291
-0.0121282
-0.00867644
-0.00598552
-0.00395861
-0.0023024
-0.000727537
-0.00111844
-0.00331955
-0.00581001
-0.00894183
-0.0126162
-0.0172754
-0.0234099
-0.0309565
-0.0404299
-0.0516861
-0.0633133
-0.0739656
-0.0811559
-0.0815922
-0.0733418
-0.0556468
-0.0297698
-0.000695578
0.0251064
0.0419242
0.0457272
0.0371862
0.0210569
0.00251834
-0.0153997
-0.0332245
-0.053654
-0.0773848
-0.100021
-0.114296
-0.114593
-0.101722
-0.0834179
-0.069143
-0.0638777
-0.066213
-0.0714709
-0.07566
-0.077217
-0.0759443
-0.0730958
-0.071314
-0.0720451
-0.0731613
-0.0723942
-0.0712474
-0.0722021
-0.0737579
-0.0728422
-0.0705135
-0.0705137
-0.0728425
-0.073758
-0.072202
-0.0712473
-0.0723943
-0.0731616
-0.0720456
-0.0713145
-0.073096
-0.0759441
-0.0772168
-0.0756601
-0.0714716
-0.0662141
-0.0638787
-0.0691433
-0.0834176
-0.101722
-0.114593
-0.114297
-0.100021
-0.0773847
-0.0536535
-0.0332242
-0.0153998
0.00251793
0.0210566
0.0371864
0.045728
0.0419251
0.025107
-0.000695381
-0.0297702
-0.0556477
-0.0733428
-0.0815931
-0.0811565
-0.0739656
-0.063313
-0.0516856
-0.0404292
-0.0309558
-0.0234094
-0.0172749
-0.0126158
-0.00894152
-0.00580966
-0.00331932
-0.00111841
-0.00173282
-0.00513253
-0.0087927
-0.0129881
-0.0177383
-0.0237093
-0.0312609
-0.0404299
-0.0516678
-0.0643799
-0.077169
-0.0886267
-0.0959197
-0.0958272
-0.0866177
-0.0675304
-0.040243
-0.0101343
0.0165942
0.0345349
0.0400642
0.0339952
0.0205744
0.00358873
-0.0153023
-0.0363738
-0.0606078
-0.0863744
-0.10817
-0.119403
-0.117181
-0.105075
-0.0904064
-0.0789566
-0.072577
-0.0705397
-0.0708713
-0.0721701
-0.0739797
-0.075192
-0.0740876
-0.0714672
-0.0699073
-0.0694493
-0.068298
-0.0674487
-0.0690305
-0.0708846
-0.0691769
-0.065663
-0.0656632
-0.0691772
-0.0708848
-0.0690304
-0.0674486
-0.0682983
-0.0694499
-0.0699079
-0.0714676
-0.0740877
-0.0751918
-0.0739795
-0.0721706
-0.0708725
-0.0705412
-0.0725781
-0.0789569
-0.090406
-0.105075
-0.117181
-0.119403
-0.108171
-0.0863745
-0.0606075
-0.0363735
-0.0153024
0.00358822
0.0205738
0.0339948
0.0400644
0.0345354
0.0165945
-0.0101343
-0.0402435
-0.0675315
-0.0866188
-0.0958281
-0.0959204
-0.0886269
-0.0771687
-0.0643795
-0.0516672
-0.0404292
-0.0312603
-0.0237087
-0.0177378
-0.0129879
-0.00879248
-0.0051324
-0.00173282
-0.00236283
-0.0071602
-0.0122147
-0.0177557
-0.0241006
-0.0316837
-0.040806
-0.0516861
-0.0643799
-0.0782486
-0.0920498
-0.103873
-0.110751
-0.109641
-0.098852
-0.0780721
-0.0495125
-0.0186347
0.00865027
0.0275174
0.0351884
0.0325158
0.0228045
0.0083345
-0.0107357
-0.034444
-0.0618381
-0.0889035
-0.108968
-0.116351
-0.111266
-0.100098
-0.0892933
-0.0808317
-0.073553
-0.0671846
-0.0621779
-0.0598029
-0.0611205
-0.0644788
-0.0654302
-0.0625414
-0.0589548
-0.0568186
-0.0552593
-0.0547236
-0.0567106
-0.0586497
-0.0564723
-0.0523315
-0.0523317
-0.0564726
-0.0586497
-0.0567103
-0.0547235
-0.0552596
-0.0568193
-0.0589553
-0.0625416
-0.06543
-0.0644785
-0.0611204
-0.0598037
-0.0621793
-0.0671861
-0.0735539
-0.0808318
-0.0892926
-0.100097
-0.111266
-0.116352
-0.108969
-0.0889039
-0.0618381
-0.0344439
-0.010736
0.00833372
0.0228034
0.0325148
0.035188
0.0275174
0.00865037
-0.0186348
-0.049513
-0.0780731
-0.0988533
-0.109642
-0.110752
-0.103873
-0.0920498
-0.0782483
-0.0643795
-0.0516856
-0.0408054
-0.0316832
-0.0241001
-0.0177553
-0.0122144
-0.00716007
-0.00236279
-0.00308017
-0.00946285
-0.0161253
-0.0232735
-0.0313603
-0.0404604
-0.0509835
-0.0633133
-0.077169
-0.0920498
-0.10654
-0.118052
-0.123882
-0.121211
-0.108275
-0.0855766
-0.0558241
-0.024184
0.00374303
0.0238612
0.0343618
0.0359883
0.0308677
0.0197694
0.00129195
-0.0244645
-0.0545262
-0.082545
-0.100619
-0.104328
-0.0970113
-0.0873209
-0.0804687
-0.0751462
-0.0676302
-0.0575292
-0.0473679
-0.0410263
-0.0411749
-0.0458183
-0.048631
-0.0460877
-0.041118
-0.0374079
-0.0353543
-0.0350007
-0.0369997
-0.0387112
-0.0364771
-0.0324506
-0.0324507
-0.0364773
-0.0387111
-0.0369993
-0.0350007
-0.0353547
-0.0374085
-0.0411182
-0.0460874
-0.0486307
-0.045818
-0.0411749
-0.0410273
-0.0473695
-0.0575306
-0.0676307
-0.075146
-0.0804679
-0.0873199
-0.097011
-0.104329
-0.10062
-0.0825456
-0.0545262
-0.0244645
0.00129161
0.0197685
0.0308663
0.035987
0.034361
0.023861
0.00374293
-0.0241842
-0.0558247
-0.0855778
-0.108276
-0.121212
-0.123883
-0.118053
-0.10654
-0.0920498
-0.0771687
-0.063313
-0.0509832
-0.0404602
-0.0313601
-0.0232732
-0.0161251
-0.0094627
-0.0030801
-0.00391254
-0.0120059
-0.0202216
-0.0287456
-0.0382089
-0.0485494
-0.060359
-0.0739656
-0.0886267
-0.103873
-0.118052
-0.128247
-0.132228
-0.12735
-0.111892
-0.0872654
-0.0565142
-0.0243306
0.00396773
0.0251665
0.0386694
0.0451159
0.0452665
0.0382573
0.0212936
-0.00551204
-0.0373287
-0.0656143
-0.0815395
-0.0822867
-0.0739736
-0.0664467
-0.0636515
-0.0618706
-0.0552693
-0.0427776
-0.0286658
-0.0191641
-0.0180416
-0.0231613
-0.0275872
-0.0263311
-0.0211655
-0.0164901
-0.0141471
-0.0139964
-0.015647
-0.0168419
-0.0150557
-0.0120048
-0.0120048
-0.0150556
-0.0168417
-0.0156468
-0.0139965
-0.0141476
-0.0164906
-0.0211654
-0.0263305
-0.0275867
-0.0231612
-0.018042
-0.0191651
-0.0286672
-0.0427786
-0.0552692
-0.0618697
-0.0636502
-0.0664454
-0.0739729
-0.0822869
-0.0815402
-0.0656147
-0.0373286
-0.00551187
0.0212934
0.0382564
0.045265
0.0451143
0.0386682
0.025166
0.00396749
-0.024331
-0.0565149
-0.0872666
-0.111894
-0.127352
-0.132229
-0.128248
-0.118053
-0.103873
-0.0886268
-0.0739656
-0.0603589
-0.0485493
-0.0382089
-0.0287456
-0.0202217
-0.0120059
-0.00391253
-0.00444314
-0.013633
-0.022925
-0.0324768
-0.0430098
-0.0543454
-0.0669739
-0.0811559
-0.0959197
-0.110751
-0.123882
-0.132228
-0.13373
-0.12589
-0.107388
-0.0805239
-0.0487321
-0.0162659
0.0119752
0.0337905
0.0499311
0.0607937
0.0656854
0.0622564
0.0467748
0.0192839
-0.0138255
-0.0419571
-0.0560426
-0.0550526
-0.0471281
-0.0421697
-0.0431381
-0.0448239
-0.039666
-0.0258512
-0.00913822
0.00249736
0.00516539
0.000765845
-0.00456189
-0.00519502
-0.000885482
0.00403553
0.00631658
0.00619783
0.00529563
0.00496175
0.00586503
0.00714118
0.00714134
0.00586536
0.00496198
0.00529567
0.00619762
0.00631618
0.00403537
-0.000884929
-0.00519401
-0.00456125
0.000765677
0.00516466
0.00249647
-0.009139
-0.0258514
-0.0396653
-0.0448224
-0.0431364
-0.0421683
-0.0471271
-0.0550522
-0.0560429
-0.0419575
-0.0138255
0.0192841
0.0467746
0.0622556
0.065684
0.0607922
0.0499299
0.0337899
0.0119752
-0.0162659
-0.0487326
-0.0805249
-0.107389
-0.125892
-0.133732
-0.132229
-0.123883
-0.110752
-0.0959204
-0.0811565
-0.0669742
-0.0543456
-0.0430101
-0.032477
-0.0229252
-0.0136331
-0.00444316
-0.00453402
-0.0138446
-0.0233678
-0.033197
-0.0438792
-0.0553278
-0.0677916
-0.0815922
-0.0958272
-0.109641
-0.121211
-0.12735
-0.12589
-0.114865
-0.0936384
-0.0649819
-0.0327354
-0.000772738
0.0267921
0.0487694
0.0670184
0.0815132
0.0902554
0.0897277
0.075493
0.0474966
0.0134481
-0.0143757
-0.0275565
-0.0268041
-0.0211421
-0.0197271
-0.0247327
-0.0300274
-0.0267897
-0.0130058
0.00439085
0.0167994
0.0211371
0.0185662
0.0132001
0.0106291
0.0134736
0.018002
0.0197862
0.0193622
0.0196453
0.0205922
0.0204177
0.0194106
0.0194108
0.0204182
0.0205924
0.019645
0.0193619
0.019786
0.0180022
0.0134743
0.0106301
0.0132006
0.0185656
0.0211358
0.0167984
0.00439069
-0.0130054
-0.0267886
-0.0300257
-0.0247308
-0.0197255
-0.0211409
-0.0268033
-0.0275563
-0.0143759
0.0134481
0.0474969
0.0754931
0.0897272
0.0902545
0.0815123
0.0670176
0.0487691
0.0267925
-0.000772297
-0.0327355
-0.0649826
-0.0936396
-0.114866
-0.125892
-0.127352
-0.121212
-0.109642
-0.0958281
-0.081593
-0.0677924
-0.0553286
-0.0438799
-0.0331975
-0.0233682
-0.0138448
-0.00453408
-0.00405043
-0.0121493
-0.0204795
-0.0291644
-0.0385266
-0.0489712
-0.0605128
-0.0733418
-0.0866177
-0.098852
-0.108275
-0.111892
-0.107388
-0.0936384
-0.0706818
-0.0412674
-0.00978174
0.0201938
0.045795
0.0667554
0.0856602
0.102294
0.113665
0.115168
0.101801
0.0736909
0.0396921
0.0127916
-5.72163e-05
-0.000981656
0.00111853
-0.00179771
-0.0109887
-0.0195182
-0.0182162
-0.00575094
0.0103521
0.0222867
0.0282087
0.0281061
0.0234765
0.019452
0.0206611
0.0241582
0.0248567
0.023982
0.0256628
0.0281537
0.0269694
0.023615
0.0236153
0.0269699
0.0281537
0.0256623
0.0239816
0.0248567
0.0241587
0.0206617
0.0194526
0.0234766
0.028105
0.028207
0.0222857
0.0103525
-0.00574973
-0.0182148
-0.0195166
-0.0109868
-0.00179585
0.00112002
-0.000980448
-5.64593e-05
0.0127917
0.0396919
0.0736912
0.101802
0.115167
0.113664
0.102293
0.08566
0.0667555
0.0457958
0.0201947
-0.00978119
-0.0412675
-0.0706825
-0.0936396
-0.107389
-0.111894
-0.108276
-0.0988533
-0.0866188
-0.0733427
-0.0605136
-0.0489721
-0.0385275
-0.0291652
-0.0204802
-0.0121497
-0.0040506
-0.00251583
-0.00746079
-0.0128919
-0.0190034
-0.0259732
-0.0345559
-0.0444336
-0.0556468
-0.0675304
-0.0780721
-0.0855766
-0.0872654
-0.0805239
-0.0649819
-0.0412674
-0.0121256
0.0172989
0.0438432
0.0661882
0.0847584
0.102497
0.119432
0.131736
0.133638
0.120207
0.0922989
0.0594884
0.0341671
0.0215145
0.0184207
0.0164892
0.00905843
-0.00367653
-0.0139739
-0.0137727
-0.00315056
0.010663
0.0217907
0.029403
0.0322133
0.0293786
0.0251985
0.0252868
0.0274211
0.026667
0.0252673
0.028298
0.0323614
0.0305675
0.0253686
0.0253687
0.0305677
0.0323612
0.0282974
0.0252669
0.0266673
0.0274219
0.0252873
0.0251985
0.029378
0.0322121
0.0294013
0.0217898
0.0106638
-0.00314867
-0.0137711
-0.0139726
-0.00367492
0.0090603
0.0164908
0.0184218
0.0215152
0.034167
0.0594878
0.0922985
0.120207
0.133638
0.131735
0.119431
0.102498
0.0847592
0.0661896
0.0438449
0.0173003
-0.0121248
-0.0412675
-0.0649826
-0.0805249
-0.0872666
-0.0855778
-0.0780731
-0.0675314
-0.0556477
-0.0444345
-0.0345568
-0.025974
-0.0190042
-0.0128926
-0.0074612
-0.002516
-0.000150852
-0.000462276
-0.00157512
-0.00376515
-0.00729793
-0.0130401
-0.0205085
-0.0297698
-0.040243
-0.0495125
-0.0558241
-0.0565142
-0.0487321
-0.0327354
-0.00978174
0.0172989
0.0430103
0.0649252
0.0831127
0.0985263
0.114277
0.130699
0.143019
0.144419
0.130912
0.104301
0.0740337
0.0510019
0.0387734
0.0333612
0.0267746
0.014355
-0.00141446
-0.0123439
-0.0129081
-0.00471475
0.00628287
0.0164503
0.0253801
0.0309766
0.0309603
0.0282723
0.0281106
0.0289069
0.02675
0.0249091
0.0289423
0.0343261
0.032598
0.0265723
0.0265722
0.0325978
0.0343257
0.0289418
0.024909
0.0267506
0.0289077
0.0281107
0.0282715
0.030959
0.0309751
0.0253786
0.0164495
0.00628377
-0.0047127
-0.0129064
-0.0123431
-0.00141355
0.0143566
0.0267762
0.0333621
0.0387736
0.0510014
0.0740326
0.1043
0.130911
0.144419
0.143019
0.130699
0.114277
0.0985274
0.0831144
0.064927
0.0430122
0.0173003
-0.00978121
-0.0327355
-0.0487326
-0.0565149
-0.0558247
-0.049513
-0.0402435
-0.0297702
-0.020509
-0.0130407
-0.00729844
-0.00376564
-0.00157552
-0.000462517
-0.00015096
0.00257049
0.00763947
0.0116492
0.0140905
0.0145817
0.0120828
0.00695014
-0.000695578
-0.0101343
-0.0186347
-0.024184
-0.0243306
-0.0162659
-0.000772738
0.0201938
0.0438432
0.0649252
0.0815952
0.0949277
0.106651
0.119936
0.135129
0.146652
0.147238
0.134365
0.110573
0.0845416
0.0653889
0.0550433
0.0481371
0.0370726
0.020095
0.00242726
-0.00816244
-0.0093811
-0.0038394
0.00432759
0.0131997
0.022364
0.0299242
0.0331863
0.0330927
0.0331643
0.0326062
0.0291813
0.0267995
0.0309413
0.0368969
0.0358158
0.0301375
0.0301372
0.0358153
0.0368964
0.0309412
0.0267997
0.0291821
0.032607
0.0331641
0.0330912
0.0331843
0.0299227
0.0223632
0.0131997
0.00432872
-0.00383732
-0.00937917
-0.00816148
0.00242783
0.0200962
0.0370743
0.048138
0.055043
0.0653877
0.08454
0.110571
0.134364
0.147238
0.146652
0.13513
0.119937
0.106652
0.0949293
0.0815971
0.064927
0.0438449
0.0201947
-0.000772328
-0.0162659
-0.024331
-0.0241843
-0.0186349
-0.0101343
-0.000695394
0.00695035
0.012083
0.0145818
0.0140905
0.0116492
0.00763947
0.00257046
0.0051381
0.0153287
0.024108
0.0306009
0.0345483
0.0347345
0.0313772
0.0251064
0.0165942
0.00865027
0.00374303
0.00396773
0.0119752
0.0267921
0.045795
0.0661882
0.0831127
0.0949277
0.103683
0.112173
0.123141
0.13661
0.146725
0.146386
0.134465
0.114201
0.0935207
0.0796078
0.072278
0.0642924
0.049025
0.0282314
0.00950533
-0.000639298
-0.00275278
0.0002668
0.0058081
0.0128138
0.0209155
0.0295095
0.0360947
0.0391166
0.0397018
0.0380561
0.0338228
0.0309025
0.0341712
0.0397644
0.0396613
0.0353111
0.0353107
0.0396606
0.039764
0.0341715
0.0309031
0.0338235
0.0380566
0.0397013
0.0391148
0.0360926
0.0295083
0.0209157
0.012815
0.00580978
0.000268863
-0.00275068
-0.000637846
0.00950607
0.0282323
0.0490265
0.0642934
0.0722775
0.0796059
0.0935184
0.114199
0.134464
0.146385
0.146725
0.136611
0.123141
0.112173
0.103684
0.0949294
0.0831144
0.0661896
0.0457958
0.0267925
0.0119752
0.00396744
0.00374288
0.00865032
0.0165944
0.025107
0.031378
0.0347353
0.0345492
0.0306016
0.0241086
0.0153291
0.00513818
0.00668752
0.0199577
0.0316426
0.0406426
0.046824
0.0488714
0.0468688
0.0419242
0.0345349
0.0275174
0.0238612
0.0251665
0.0337905
0.0487694
0.0667554
0.0847584
0.0985263
0.106651
0.112173
0.118749
0.128138
0.139996
0.148599
0.147233
0.135985
0.119176
0.10417
0.095734
0.0911218
0.0814466
0.0618591
0.0373815
0.0170991
0.00615191
0.00228384
0.00259672
0.00515019
0.00924184
0.0149953
0.0236481
0.0329853
0.0389286
0.0401548
0.0379463
0.0336007
0.0303831
0.0321292
0.0365151
0.0372994
0.0347277
0.0347274
0.0372989
0.036515
0.0321297
0.0303838
0.0336012
0.0379462
0.0401539
0.0389269
0.0329834
0.0236473
0.0149962
0.00924402
0.00515248
0.0025987
0.00228579
0.00615375
0.0171003
0.0373824
0.0618602
0.0814476
0.0911214
0.095732
0.104167
0.119174
0.135984
0.147233
0.148599
0.139997
0.128138
0.118749
0.112173
0.106652
0.0985274
0.0847592
0.0667555
0.0487691
0.0337899
0.0251659
0.0238609
0.0275174
0.0345354
0.0419251
0.0468699
0.0488727
0.0468254
0.0406437
0.0316436
0.0199584
0.00668771
0.0067914
0.0201705
0.0320504
0.04133
0.0478703
0.0505909
0.0494237
0.0457272
0.0400642
0.0351884
0.0343618
0.0386694
0.0499311
0.0670184
0.0856602
0.102497
0.114277
0.119936
0.123141
0.128138
0.135754
0.145389
0.151596
0.148315
0.136967
0.123292
0.113917
0.110673
0.108273
0.0968595
0.0735783
0.0456975
0.0230737
0.0100403
0.00367999
0.000801396
-0.000518191
-0.000488417
0.00190614
0.00946433
0.0201809
0.0280713
0.0297603
0.027365
0.0234397
0.0202739
0.0202784
0.0227487
0.0237836
0.022748
0.0227479
0.0237836
0.022749
0.0202789
0.0202744
0.0234398
0.0273642
0.0297589
0.0280696
0.0201796
0.00946408
0.00190758
-0.000485577
-0.000515246
0.00080363
0.00368191
0.0100424
0.0230757
0.0456988
0.0735794
0.0968603
0.108273
0.110671
0.113915
0.12329
0.136966
0.148316
0.151597
0.14539
0.135754
0.128138
0.123141
0.119937
0.114277
0.102498
0.08566
0.0670176
0.0499299
0.0386682
0.034361
0.0351879
0.0400643
0.045728
0.0494247
0.0505922
0.0478716
0.0413312
0.0320515
0.0201712
0.00679162
0.00544991
0.0160801
0.0256447
0.0331503
0.0383229
0.0405729
0.0396798
0.0371862
0.0339952
0.0325158
0.0359883
0.0451159
0.0607937
0.0815132
0.102294
0.119432
0.130699
0.135129
0.13661
0.139996
0.145389
0.151676
0.153802
0.146931
0.133913
0.121945
0.116744
0.11723
0.116038
0.10296
0.076765
0.0459016
0.0207581
0.00541993
-0.00331894
-0.00939108
-0.0146668
-0.0184407
-0.0189546
-0.012744
-0.00150995
0.00788704
0.010485
0.00874462
0.0061788
0.00407181
0.0029791
0.00334552
0.00387065
0.00376092
0.00376121
0.00387134
0.00334621
0.00297951
0.0040718
0.00617816
0.0087432
0.0104832
0.00788558
-0.0015105
-0.0127435
-0.0189528
-0.0184378
-0.0146637
-0.00938859
-0.00331708
0.00542186
0.02076
0.045903
0.0767657
0.10296
0.116038
0.117229
0.116743
0.121944
0.133913
0.146932
0.153803
0.151677
0.14539
0.139997
0.136611
0.13513
0.130699
0.119431
0.102293
0.0815123
0.0607922
0.0451142
0.0359869
0.0325148
0.0339947
0.0371864
0.0396804
0.0405738
0.0383239
0.0331512
0.0256455
0.0160806
0.00545006
0.00334741
0.00968672
0.0153991
0.0197191
0.0223792
0.023415
0.0224287
0.0210569
0.0205744
0.0228045
0.0308677
0.0452665
0.0656854
0.0902554
0.113665
0.131736
0.143019
0.146652
0.146725
0.148599
0.151596
0.153802
0.150852
0.139557
0.123987
0.112706
0.110553
0.113834
0.113535
0.0994974
0.0716283
0.0388854
0.0121138
-0.00483565
-0.0155614
-0.024716
-0.0334613
-0.0399733
-0.0424049
-0.0375398
-0.0264087
-0.0157343
-0.0117141
-0.0119971
-0.012224
-0.0120563
-0.0132631
-0.0148753
-0.0154455
-0.0151939
-0.0151934
-0.0154444
-0.0148744
-0.0132629
-0.0120569
-0.0122254
-0.0119992
-0.0117162
-0.0157355
-0.0264085
-0.0375385
-0.042403
-0.0399708
-0.0334585
-0.0247135
-0.0155595
-0.00483422
0.012115
0.0388862
0.0716284
0.0994967
0.113534
0.113833
0.110551
0.112705
0.123987
0.139559
0.150854
0.153803
0.151597
0.148599
0.146725
0.146652
0.143019
0.131735
0.113664
0.0902544
0.065684
0.0452649
0.0308663
0.0228033
0.0205737
0.0210566
0.0224286
0.0234152
0.0223795
0.0197194
0.0153993
0.00968687
0.00334746
0.0013338
0.00357649
0.00554422
0.00662022
0.00647006
0.0056776
0.00378236
0.00251834
0.00358873
0.0083345
0.0197694
0.0382573
0.0622564
0.0897277
0.115168
0.133638
0.144419
0.147238
0.146386
0.147233
0.148315
0.146931
0.139557
0.124709
0.107447
0.0975828
0.0989666
0.105558
0.107078
0.0937728
0.0663453
0.033919
0.00748953
-0.00981576
-0.0220788
-0.0340545
-0.0454558
-0.0535804
-0.0571865
-0.0538143
-0.0434198
-0.0319312
-0.0264289
-0.0248568
-0.0220875
-0.0188291
-0.0194841
-0.0228676
-0.0246427
-0.0241534
-0.0241529
-0.0246417
-0.0228668
-0.0194842
-0.0188302
-0.0220896
-0.0248592
-0.026431
-0.0319319
-0.0434189
-0.0538122
-0.0571843
-0.0535782
-0.0454536
-0.0340521
-0.0220767
-0.0098146
0.00748993
0.0339189
0.0663447
0.0937715
0.107076
0.105556
0.098965
0.0975817
0.107447
0.124709
0.139559
0.146932
0.148316
0.147232
0.146385
0.147238
0.144419
0.133638
0.115167
0.0897271
0.0622555
0.0382564
0.0197685
0.00833369
0.0035882
0.00251793
0.00378204
0.00567739
0.00646977
0.00661996
0.00554399
0.00357629
0.00133374
0.00018742
-4.58522e-05
-0.000572897
-0.00196391
-0.0047913
-0.00808526
-0.0122257
-0.0153997
-0.0153023
-0.0107357
0.00129195
0.0212936
0.0467748
0.075493
0.101801
0.120207
0.130912
0.134365
0.134465
0.135985
0.136967
0.133913
0.123987
0.107447
0.0903204
0.0832777
0.0890076
0.0996415
0.104113
0.0933521
0.0686877
0.0392501
0.0155598
-0.000655005
-0.0138168
-0.0279493
-0.0409916
-0.0498702
-0.0542667
-0.0525656
-0.0435195
-0.031987
-0.0254083
-0.021958
-0.0160139
-0.00959882
-0.0096302
-0.0145013
-0.0169426
-0.0157532
-0.0157531
-0.0169423
-0.0145009
-0.00963032
-0.00959996
-0.0160161
-0.0219604
-0.0254099
-0.0319869
-0.0435177
-0.0525627
-0.0542637
-0.0498679
-0.0409896
-0.0279469
-0.0138145
-0.000653773
0.0155596
0.039249
0.0686862
0.0933501
0.104111
0.0996394
0.0890057
0.0832761
0.0903194
0.107447
0.123987
0.133913
0.136966
0.135984
0.134464
0.134364
0.130911
0.120207
0.101802
0.0754931
0.0467746
0.0212933
0.00129156
-0.010736
-0.0153024
-0.0153998
-0.0122258
-0.00808536
-0.00479157
-0.00196419
-0.000573205
-4.61108e-05
0.000187357
-0.000193446
-0.00146378
-0.00342462
-0.00673739
-0.0122826
-0.018755
-0.0263367
-0.0332245
-0.0363738
-0.034444
-0.0244645
-0.00551204
0.0192839
0.0474966
0.0736909
0.0922989
0.104301
0.110573
0.114201
0.119176
0.123292
0.121945
0.112706
0.0975828
0.0832777
0.0806553
0.0913118
0.106238
0.113809
0.105883
0.0846408
0.0592244
0.038887
0.0234885
0.00871626
-0.00804993
-0.0231354
-0.0335244
-0.0396264
-0.0405531
-0.0340789
-0.0239495
-0.0173275
-0.0125502
-0.0040072
0.00477924
0.00499091
-0.000900062
-0.00298715
-0.000305571
-0.000305889
-0.00298778
-0.000900521
0.00499049
0.00477825
-0.004009
-0.012552
-0.0173282
-0.0239485
-0.0340762
-0.0405495
-0.0396227
-0.0335215
-0.0231332
-0.00804767
0.00871868
0.0234899
0.0388866
0.0592225
0.0846387
0.105881
0.113807
0.106236
0.0913097
0.0806534
0.0832761
0.0975817
0.112705
0.121944
0.12329
0.119174
0.114199
0.110571
0.1043
0.0922985
0.0736912
0.0474969
0.0192841
-0.00551191
-0.0244645
-0.0344439
-0.0363736
-0.0332242
-0.0263363
-0.0187546
-0.0122824
-0.00673716
-0.00342451
-0.00146374
-0.000193379
-0.000774583
-0.00338853
-0.00704355
-0.0125019
-0.0209814
-0.0310379
-0.0425409
-0.053654
-0.0606078
-0.0618381
-0.0545262
-0.0373287
-0.0138255
0.0134481
0.0396921
0.0594884
0.0740337
0.0845416
0.0935207
0.10417
0.113917
0.116744
0.110553
0.0989666
0.0890076
0.0913118
0.106653
0.125177
0.134683
0.128519
0.110226
0.088745
0.0711879
0.0555395
0.0381448
0.0179759
-0.000239565
-0.0136953
-0.0229657
-0.0277142
-0.0251587
-0.0180119
-0.0126374
-0.00759559
0.00228566
0.012209
0.0123447
0.00617116
0.00546366
0.0102267
0.0102261
0.00546227
0.00616976
0.0123436
0.012208
0.00228449
-0.0075964
-0.012637
-0.01801
-0.0251555
-0.0277102
-0.0229615
-0.0136917
-0.000236932
0.0179781
0.0381469
0.0555408
0.0711874
0.0887428
0.110223
0.128517
0.134681
0.125176
0.106651
0.0913097
0.0890057
0.098965
0.110551
0.116743
0.113915
0.104167
0.0935184
0.08454
0.0740326
0.0594878
0.039692
0.0134481
-0.0138255
-0.0373286
-0.0545262
-0.0618381
-0.0606075
-0.0536535
-0.0425402
-0.0310371
-0.0209806
-0.0125011
-0.0070429
-0.00338812
-0.000774368
-0.00227253
-0.00795674
-0.0148866
-0.0237055
-0.035651
-0.0491108
-0.0635807
-0.0773848
-0.0863744
-0.0889035
-0.082545
-0.0656143
-0.0419571
-0.0143757
0.0127916
0.0341671
0.0510019
0.0653889
0.0796078
0.095734
0.110673
0.11723
0.113834
0.105558
0.0996415
0.106238
0.125177
0.145655
0.155214
0.149534
0.133658
0.11568
0.100094
0.0835773
0.0634318
0.0397802
0.0176953
-3.2975e-05
-0.0134357
-0.0225414
-0.0245066
-0.0212561
-0.0181513
-0.0140309
-0.00415937
0.00606675
0.0065125
0.00111624
0.00239608
0.00921987
0.0092193
0.00239451
0.00111413
0.00651047
0.00606531
-0.00415992
-0.0140303
-0.0181494
-0.0212532
-0.0245031
-0.0225375
-0.0134314
-2.88502e-05
0.0176984
0.0397821
0.0634331
0.083578
0.100094
0.115677
0.133655
0.149532
0.155212
0.145654
0.125175
0.106236