/*--------------------------------*- C++ -*----------------------------------*\
  =========                 |
  \\      /  F ield         | OpenFOAM: The Open Source CFD Toolbox
   \\    /   O peration     | Website:  https://openfoam.org
    \\  /    A nd           | Version:  10
     \\/     M anipulation  |
\*---------------------------------------------------------------------------*/
FoamFile
{
    format      ascii;
    class       volScalarField;
    location    "40";
    object      h_0;
}
// * * * * * * * * * * * * * * * * * * * * * * * * * * * * * * * * * * * * * //

dimensions      [0 1 0 0 0 0 0];

internalField   nonuniform List<scalar> 
10000
(
-9.37366e-05
-0.000127217
-0.000171179
-0.000224621
-0.000178599
-0.000395168
-0.000722528
-0.00111044
-0.00172077
-0.0023452
-0.00306355
-0.00389735
-0.00443197
-0.00453578
-0.00406609
-0.00254432
-0.000191721
0.00252535
0.00510559
0.00667766
0.0068111
0.0054936
0.00339535
0.0013733
0.000210396
-0.000175004
-0.000742602
-0.00221478
-0.00489206
-0.00746413
-0.00828868
-0.00649104
-0.00320747
-0.000624118
-0.000394474
-0.00248531
-0.00498769
-0.00608902
-0.00526277
-0.00390584
-0.00335502
-0.00391101
-0.00463029
-0.00501656
-0.00507782
-0.0049354
-0.00451893
-0.00427768
-0.00466993
-0.00531013
-0.0053101
-0.00466989
-0.00427768
-0.00451898
-0.00493544
-0.00507782
-0.00501655
-0.00463031
-0.00391104
-0.00335502
-0.00390584
-0.00526282
-0.00608912
-0.00498773
-0.00248521
-0.000394272
-0.000623975
-0.00320748
-0.0064912
-0.00828884
-0.00746412
-0.00489185
-0.00221446
-0.00074239
-0.000174942
0.000210325
0.00137323
0.0033954
0.00549375
0.00681133
0.00667785
0.00510568
0.00252532
-0.000191825
-0.00254449
-0.00406626
-0.00453584
-0.00443199
-0.00389735
-0.00306348
-0.00234516
-0.00172077
-0.0011104
-0.0007225
-0.000395087
-0.000178499
-0.000224647
-0.000171225
-0.000127276
-9.37964e-05
-0.000127217
-6.69246e-05
-0.000221317
-0.000597744
-0.000773058
-0.00146727
-0.00227753
-0.00328895
-0.0050946
-0.00710956
-0.00941349
-0.0119609
-0.0136018
-0.0138504
-0.0121989
-0.007555
-0.000593223
0.00750428
0.0152376
0.0199384
0.020241
0.0162239
0.00984644
0.00371056
3.82238e-05
-0.00139856
-0.00328944
-0.00779047
-0.0155874
-0.022993
-0.0252217
-0.0198661
-0.0101501
-0.00246217
-0.00162867
-0.00745837
-0.0145238
-0.0176297
-0.0153466
-0.0114369
-0.00976597
-0.0112541
-0.013365
-0.0145203
-0.0146964
-0.0142613
-0.0131307
-0.012504
-0.0136071
-0.0153655
-0.0153654
-0.0136069
-0.012504
-0.0131308
-0.0142614
-0.0146963
-0.0145202
-0.013365
-0.0112541
-0.00976591
-0.0114368
-0.0153466
-0.0176298
-0.0145238
-0.00745806
-0.00162815
-0.00246183
-0.0101502
-0.0198666
-0.0252222
-0.022993
-0.015587
-0.0077898
-0.00328904
-0.00139854
3.79445e-05
0.00371035
0.00984659
0.0162245
0.0202418
0.0199391
0.015238
0.00750428
-0.000593466
-0.00755542
-0.0121994
-0.0138507
-0.013602
-0.011961
-0.00941334
-0.00710943
-0.00509447
-0.00328873
-0.00227747
-0.00146723
-0.000772933
-0.000597759
-0.000221222
-6.68446e-05
-0.000127274
-0.000171179
-0.000221317
-0.000515696
-0.00106347
-0.00150321
-0.00257956
-0.00391623
-0.00575847
-0.00872677
-0.0121304
-0.0160397
-0.020142
-0.0228711
-0.0233726
-0.0205553
-0.0130433
-0.0017854
0.0114353
0.0239617
0.0316126
0.0321654
0.0258767
0.0156616
0.00576816
-0.000421027
-0.00330082
-0.00686521
-0.0146067
-0.0270891
-0.0387769
-0.0422166
-0.033934
-0.0187777
-0.00675821
-0.00542029
-0.0141946
-0.0249329
-0.0297946
-0.0267685
-0.0209255
-0.018176
-0.0201571
-0.0234758
-0.0253442
-0.0255591
-0.0247776
-0.0232006
-0.0224063
-0.0239775
-0.0263931
-0.026393
-0.0239773
-0.0224063
-0.0232008
-0.0247777
-0.025559
-0.025344
-0.0234758
-0.0201572
-0.018176
-0.0209254
-0.0267685
-0.0297947
-0.0249329
-0.0141943
-0.00541968
-0.00675782
-0.0187779
-0.0339347
-0.0422173
-0.038777
-0.0270885
-0.0146058
-0.00686456
-0.00330073
-0.000421359
0.00576792
0.0156618
0.0258775
0.0321666
0.0316136
0.0239623
0.0114352
-0.00178582
-0.0130439
-0.020556
-0.023373
-0.0228713
-0.0201421
-0.0160395
-0.0121301
-0.00872654
-0.00575811
-0.00391605
-0.00257946
-0.00150306
-0.00106347
-0.0005156
-0.000221223
-0.000171224
-0.000224621
-0.000597744
-0.00106347
-0.00163362
-0.00242308
-0.00387771
-0.00592934
-0.0088682
-0.0128884
-0.0176346
-0.0231495
-0.0286296
-0.0323998
-0.0331971
-0.0292575
-0.0191958
-0.00403273
0.0138189
0.030412
0.0406093
0.0414884
0.0334576
0.0200706
0.00692374
-0.00174358
-0.00654884
-0.012243
-0.0233224
-0.0397214
-0.0546489
-0.0588884
-0.0484285
-0.0292872
-0.0140893
-0.0123232
-0.0228395
-0.03591
-0.0421955
-0.0393819
-0.0326085
-0.0289625
-0.0309444
-0.0351505
-0.0376608
-0.0378509
-0.0367519
-0.0351245
-0.0344791
-0.0361805
-0.0386256
-0.0386255
-0.0361803
-0.0344791
-0.0351247
-0.036752
-0.0378508
-0.0376606
-0.0351505
-0.0309446
-0.0289627
-0.0326085
-0.0393819
-0.0421956
-0.0359099
-0.0228393
-0.0123226
-0.0140889
-0.0292873
-0.0484292
-0.058889
-0.0546489
-0.0397206
-0.0233212
-0.0122421
-0.00654863
-0.0017439
0.00692346
0.0200709
0.0334586
0.0414897
0.0406105
0.0304127
0.0138189
-0.00403324
-0.0191966
-0.0292583
-0.0331976
-0.0324
-0.0286296
-0.0231492
-0.0176343
-0.0128881
-0.0088679
-0.00592904
-0.00387745
-0.00242282
-0.0016335
-0.00106347
-0.000597761
-0.000224646
-0.000178599
-0.000773058
-0.00150321
-0.00242308
-0.00393584
-0.00589074
-0.00859291
-0.0125077
-0.0175999
-0.0239417
-0.0311935
-0.038054
-0.042908
-0.0438691
-0.0386334
-0.0262057
-0.00761835
0.0142634
0.0343331
0.0468013
0.0480775
0.038706
0.0228244
0.00686646
-0.0044803
-0.0120048
-0.0206312
-0.035177
-0.0546132
-0.0714377
-0.0758223
-0.0638119
-0.0422507
-0.0250859
-0.0226394
-0.0331906
-0.0467318
-0.0537635
-0.0518366
-0.0451366
-0.0408115
-0.0422315
-0.0467104
-0.0496035
-0.0496636
-0.0483291
-0.0470379
-0.0468257
-0.0482726
-0.0500923
-0.0500922
-0.0482724
-0.0468258
-0.0470381
-0.0483292
-0.0496634
-0.0496033
-0.0467105
-0.0422318
-0.0408116
-0.0451366
-0.0518364
-0.0537634
-0.0467318
-0.0331906
-0.0226392
-0.0250856
-0.0422509
-0.0638125
-0.075823
-0.0714377
-0.0546126
-0.035176
-0.0206304
-0.0120046
-0.0044806
0.00686616
0.0228247
0.0387071
0.048079
0.0468027
0.034334
0.0142635
-0.00761887
-0.0262065
-0.0386343
-0.0438698
-0.0429083
-0.038054
-0.0311932
-0.0239412
-0.0175994
-0.0125073
-0.00859252
-0.00589052
-0.00393568
-0.00242282
-0.00150306
-0.000772932
-0.000178499
-0.000395168
-0.00146727
-0.00257956
-0.00387771
-0.00589074
-0.00839207
-0.0120198
-0.0171324
-0.0235321
-0.0314809
-0.0402421
-0.0483497
-0.0542102
-0.0552967
-0.0490796
-0.034808
-0.0133877
0.0117362
0.0345004
0.0488504
0.0508209
0.0409963
0.023917
0.0061416
-0.00769292
-0.0183833
-0.0305927
-0.0485553
-0.0701648
-0.0876413
-0.0916491
-0.0789893
-0.0570144
-0.0395747
-0.0364116
-0.0455373
-0.0578654
-0.064986
-0.0644258
-0.0588576
-0.0543468
-0.0548032
-0.0587769
-0.0616086
-0.0614376
-0.0599906
-0.0593225
-0.059696
-0.060527
-0.0611757
-0.0611757
-0.060527
-0.0596961
-0.0593226
-0.0599906
-0.0614374
-0.0616085
-0.0587771
-0.0548036
-0.054347
-0.0588576
-0.0644256
-0.0649859
-0.0578655
-0.0455376
-0.0364119
-0.0395746
-0.0570145
-0.0789897
-0.0916496
-0.0876414
-0.0701643
-0.0485544
-0.0305918
-0.0183829
-0.00769304
0.00614137
0.0239172
0.0409972
0.0508223
0.0488518
0.0345013
0.0117363
-0.0133883
-0.0348089
-0.0490805
-0.0552975
-0.0542105
-0.0483496
-0.0402419
-0.0314804
-0.0235315
-0.0171319
-0.0120193
-0.00839165
-0.00589052
-0.00387746
-0.00257946
-0.00146722
-0.000395088
-0.000722528
-0.00227753
-0.00391623
-0.00592934
-0.00859291
-0.0120198
-0.0168899
-0.0232237
-0.0310365
-0.0405521
-0.0507155
-0.0601213
-0.0668089
-0.0677431
-0.0606221
-0.0446932
-0.0208648
0.00659214
0.0311406
0.0468575
0.0496681
0.040122
0.0229573
0.00428701
-0.0117736
-0.0258912
-0.0420317
-0.0629962
-0.0856007
-0.102179
-0.104849
-0.0919754
-0.0711833
-0.0547873
-0.0506329
-0.0569027
-0.0664117
-0.0727206
-0.0735542
-0.0699924
-0.0660276
-0.0653987
-0.0681275
-0.0704161
-0.0700161
-0.0686861
-0.0688549
-0.0698779
-0.0698789
-0.069058
-0.0690581
-0.0698791
-0.0698781
-0.0688549
-0.0686861
-0.070016
-0.0704162
-0.0681279
-0.0653991
-0.0660279
-0.0699924
-0.073554
-0.0727205
-0.0664121
-0.0569034
-0.0506335
-0.0547873
-0.0711831
-0.0919755
-0.10485
-0.10218
-0.0856005
-0.0629956
-0.0420309
-0.0258908
-0.0117737
0.00428668
0.0229572
0.0401226
0.0496691
0.0468586
0.0311414
0.00659235
-0.0208654
-0.0446941
-0.060623
-0.0677439
-0.0668092
-0.0601211
-0.0507152
-0.0405516
-0.0310359
-0.0232232
-0.0168893
-0.0120193
-0.00859252
-0.00592904
-0.00391605
-0.00227747
-0.0007225
-0.00111044
-0.00328895
-0.00575847
-0.0088682
-0.0125077
-0.0171324
-0.0232237
-0.0307201
-0.0401569
-0.0513811
-0.0629975
-0.0736894
-0.0809614
-0.0815308
-0.0734569
-0.0559217
-0.0301466
-0.00107483
0.0248581
0.0419036
0.0459534
0.0376094
0.021578
0.00304074
-0.0148994
-0.0327117
-0.0530936
-0.0768037
-0.0995349
-0.114044
-0.114624
-0.101947
-0.0836688
-0.0692738
-0.0638468
-0.066078
-0.0713256
-0.075571
-0.0771972
-0.0759631
-0.0731196
-0.0713305
-0.0720495
-0.0731535
-0.0723913
-0.0712678
-0.0722344
-0.0737809
-0.0728603
-0.0705397
-0.0705398
-0.0728606
-0.0737811
-0.0722343
-0.0712677
-0.0723913
-0.0731538
-0.0720501
-0.071331
-0.0731197
-0.0759629
-0.077197
-0.0755711
-0.0713263
-0.0660791
-0.0638478
-0.069274
-0.0836685
-0.101946
-0.114624
-0.114045
-0.0995352
-0.0768035
-0.0530932
-0.0327114
-0.0148995
0.00304033
0.0215777
0.0376096
0.0459541
0.0419045
0.0248587
-0.00107464
-0.0301471
-0.0559226
-0.0734579
-0.0815316
-0.080962
-0.0736894
-0.0629971
-0.0513806
-0.0401561
-0.0307194
-0.0232232
-0.0171319
-0.0125073
-0.0088679
-0.00575811
-0.00328873
-0.0011104
-0.00172077
-0.0050946
-0.00872677
-0.0128884
-0.0175999
-0.0235321
-0.0310365
-0.0401569
-0.0513542
-0.0640304
-0.0768155
-0.0883216
-0.0957084
-0.0957668
-0.0867448
-0.0678215
-0.0406387
-0.0105355
0.0163166
0.0344655
0.040215
0.0343285
0.0210104
0.00405483
-0.0148181
-0.035848
-0.0600464
-0.0858496
-0.1078
-0.11928
-0.117302
-0.10534
-0.09068
-0.0791518
-0.0726958
-0.0706175
-0.0709195
-0.0722044
-0.0740424
-0.0753034
-0.0742319
-0.0716327
-0.0700891
-0.0696188
-0.0684358
-0.0675841
-0.0692042
-0.071087
-0.0693662
-0.0658246
-0.0658248
-0.0693666
-0.0710871
-0.069204
-0.067584
-0.0684361
-0.0696194
-0.0700897
-0.0716331
-0.074232
-0.0753032
-0.0740423
-0.0722049
-0.0709207
-0.0706189
-0.072697
-0.0791521
-0.0906795
-0.10534
-0.117302
-0.119281
-0.107801
-0.0858497
-0.060046
-0.0358478
-0.0148182
0.00405432
0.0210098
0.0343281
0.0402152
0.034466
0.0163169
-0.0105356
-0.0406392
-0.0678226
-0.0867459
-0.0957677
-0.0957091
-0.0883218
-0.0768152
-0.06403
-0.0513536
-0.0401561
-0.0310359
-0.0235315
-0.0175994
-0.0128881
-0.00872655
-0.00509447
-0.00172076
-0.0023452
-0.00710956
-0.0121304
-0.0176346
-0.0239417
-0.0314809
-0.0405521
-0.0513811
-0.0640304
-0.0778722
-0.0916865
-0.103572
-0.110563
-0.10962
-0.0990237
-0.0784101
-0.0499523
-0.019078
0.00831971
0.0273724
0.0352325
0.0327168
0.0231061
0.0086945
-0.0103161
-0.0339565
-0.0613338
-0.0885014
-0.10878
-0.11642
-0.111532
-0.10045
-0.0896261
-0.0811243
-0.0738543
-0.0675041
-0.0624473
-0.0599874
-0.0612837
-0.0646818
-0.0656773
-0.0628305
-0.0592899
-0.0571463
-0.0555187
-0.0549465
-0.0569879
-0.0589907
-0.0567961
-0.0525958
-0.052596
-0.0567964
-0.0589908
-0.0569876
-0.0549464
-0.0555191
-0.0571469
-0.0592904
-0.0628307
-0.0656772
-0.0646815
-0.0612836
-0.0599881
-0.0624488
-0.0675055
-0.0738552
-0.0811243
-0.0896254
-0.100449
-0.111532
-0.116421
-0.108781
-0.0885018
-0.0613338
-0.0339565
-0.0103164
0.00869371
0.023105
0.0327158
0.035232
0.0273725
0.00831982
-0.0190781
-0.0499528
-0.0784112
-0.0990251
-0.109621
-0.110564
-0.103573
-0.0916865
-0.077872
-0.06403
-0.0513806
-0.0405516
-0.0314804
-0.0239412
-0.0176343
-0.0121301
-0.00710943
-0.00234516
-0.00306355
-0.00941349
-0.0160397
-0.0231495
-0.0311935
-0.0402421
-0.0507155
-0.0629975
-0.0768155
-0.0916865
-0.106201
-0.11779
-0.123755
-0.121266
-0.108531
-0.0860084
-0.0563559
-0.0247159
0.00330988
0.0235885
0.0342449
0.0360022
0.0309891
0.0199903
0.00162578
-0.0240304
-0.0540892
-0.0822666
-0.100605
-0.104573
-0.0974111
-0.0877464
-0.0808515
-0.0755312
-0.0681059
-0.0580763
-0.0478565
-0.041379
-0.041458
-0.0461165
-0.0489708
-0.0464852
-0.0415883
-0.0378802
-0.0357307
-0.0353069
-0.0373632
-0.0391636
-0.0369122
-0.0328044
-0.0328045
-0.0369123
-0.0391635
-0.0373629
-0.0353069
-0.0357311
-0.0378808
-0.0415884
-0.0464849
-0.0489704
-0.0461162
-0.0414581
-0.0413799
-0.047858
-0.0580776
-0.0681064
-0.0755309
-0.0808507
-0.0877455
-0.0974109
-0.104574
-0.100606
-0.0822672
-0.0540893
-0.0240304
0.00162543
0.0199894
0.0309878
0.0360009
0.0342441
0.0235883
0.00330978
-0.0247162
-0.0563565
-0.0860096
-0.108533
-0.121268
-0.123756
-0.117791
-0.106202
-0.0916865
-0.0768152
-0.0629971
-0.0507152
-0.0402418
-0.0311932
-0.0231492
-0.0160395
-0.00941334
-0.00306348
-0.00389735
-0.0119609
-0.020142
-0.0286296
-0.038054
-0.0483497
-0.0601213
-0.0736894
-0.0883216
-0.103572
-0.11779
-0.128077
-0.132217
-0.12753
-0.112272
-0.0878175
-0.0571535
-0.0249645
0.00341129
0.024735
0.0383544
0.0449012
0.0451636
0.0382959
0.0215014
-0.00516661
-0.0369818
-0.0654555
-0.081667
-0.0826583
-0.0744433
-0.066872
-0.0640071
-0.0622629
-0.0558088
-0.0434227
-0.0292554
-0.0195928
-0.0183569
-0.023456
-0.0279131
-0.0267269
-0.021654
-0.0169949
-0.0145481
-0.0143059
-0.0160065
-0.017302
-0.015503
-0.0123632
-0.0123632
-0.0155029
-0.0173018
-0.0160064
-0.014306
-0.0145487
-0.0169954
-0.0216539
-0.0267263
-0.0279127
-0.0234559
-0.0183573
-0.0195939
-0.0292568
-0.0434237
-0.0558088
-0.062262
-0.0640059
-0.0668708
-0.0744426
-0.0826585
-0.0816678
-0.0654559
-0.0369817
-0.00516644
0.0215012
0.038295
0.0451621
0.0448996
0.0383532
0.0247344
0.00341105
-0.0249648
-0.0571543
-0.0878187
-0.112274
-0.127532
-0.132218
-0.128078
-0.117791
-0.103573
-0.0883217
-0.0736894
-0.0601211
-0.0483496
-0.038054
-0.0286296
-0.0201421
-0.011961
-0.00389734
-0.00443197
-0.0136018
-0.0228711
-0.0323998
-0.042908
-0.0542102
-0.0668089
-0.0809614
-0.0957084
-0.110563
-0.123755
-0.132217
-0.133895
-0.126248
-0.107937
-0.0812312
-0.0495019
-0.0170137
0.0112974
0.0332165
0.0494502
0.0603924
0.0654028
0.0621596
0.0468984
0.0195739
-0.0135375
-0.0418745
-0.0562588
-0.0554953
-0.0476144
-0.0425541
-0.0434397
-0.0451923
-0.0402075
-0.0265126
-0.00975707
0.00204439
0.00486849
0.000535527
-0.00480406
-0.00550349
-0.00128533
0.00361121
0.0059866
0.0059676
0.00503406
0.0046072
0.00551858
0.00687918
0.00687934
0.00551891
0.00460743
0.00503409
0.00596738
0.0059862
0.00361106
-0.00128478
-0.00550247
-0.00480343
0.000535338
0.00486774
0.0020435
-0.00975783
-0.0265128
-0.0402068
-0.0451908
-0.043438
-0.0425527
-0.0476134
-0.055495
-0.0562591
-0.041875
-0.0135374
0.019574
0.0468982
0.0621587
0.0654014
0.0603909
0.049449
0.0332159
0.0112974
-0.0170137
-0.0495024
-0.0812322
-0.107939
-0.12625
-0.133897
-0.132218
-0.123756
-0.110564
-0.0957091
-0.0809619
-0.0668092
-0.0542105
-0.0429083
-0.0324
-0.0228713
-0.013602
-0.00443199
-0.00453578
-0.0138504
-0.0233726
-0.0331971
-0.0438691
-0.0552967
-0.0677431
-0.0815308
-0.0957668
-0.10962
-0.121266
-0.12753
-0.126248
-0.115414
-0.0943639
-0.0658408
-0.0336279
-0.0016232
0.0260143
0.0480822
0.0664076
0.0809718
0.0898502
0.0895626
0.0755997
0.0477976
0.0137568
-0.0142686
-0.0277413
-0.0271867
-0.0215149
-0.0199647
-0.0248982
-0.0302881
-0.0272309
-0.0135778
0.00382901
0.0163829
0.0208987
0.0184258
0.0130599
0.0104342
0.0132037
0.0177005
0.0195474
0.0192106
0.0194823
0.0203571
0.0201873
0.0192514
0.0192517
0.0201878
0.0203573
0.0194821
0.0192102
0.0195472
0.0177006
0.0132044
0.0104352
0.0130604
0.0184252
0.0208974
0.016382
0.00382887
-0.0135774
-0.0272298
-0.0302864
-0.0248963
-0.0199631
-0.0215137
-0.0271859
-0.0277411
-0.0142688
0.0137568
0.047798
0.0755998
0.089562
0.0898493
0.0809708
0.0664069
0.0480819
0.0260146
-0.00162277
-0.033628
-0.0658415
-0.0943651
-0.115415
-0.12625
-0.127532
-0.121268
-0.109621
-0.0957676
-0.0815316
-0.0677439
-0.0552974
-0.0438698
-0.0331976
-0.023373
-0.0138507
-0.00453584
-0.00406609
-0.0121989
-0.0205553
-0.0292575
-0.0386334
-0.0490796
-0.0606221
-0.0734569
-0.0867448
-0.0990237
-0.108531
-0.112272
-0.107937
-0.0943639
-0.0715485
-0.0422199
-0.0107286
0.0193156
0.044998
0.0660329
0.0849932
0.101689
0.113212
0.114995
0.101932
0.0740344
0.0400577
0.0129721
-0.000142365
-0.00121636
0.000944961
-0.00182607
-0.0109694
-0.0196103
-0.0184809
-0.00615236
0.0099246
0.0219716
0.0280694
0.0280736
0.0234492
0.0193901
0.0205535
0.0240141
0.0247295
0.0239096
0.0255929
0.0280391
0.0268599
0.0235604
0.0235607
0.0268604
0.028039
0.0255924
0.0239092
0.0247295
0.0240146
0.0205542
0.0193907
0.0234492
0.0280726
0.0280677
0.0219706
0.00992501
-0.00615113
-0.0184796
-0.0196087
-0.0109674
-0.00182421
0.00094645
-0.00121517
-0.000141619
0.0129722
0.0400576
0.0740346
0.101933
0.114994
0.113212
0.101688
0.0849929
0.066033
0.0449987
0.0193165
-0.010728
-0.04222
-0.0715492
-0.0943651
-0.107939
-0.112274
-0.108533
-0.099025
-0.0867459
-0.0734579
-0.060623
-0.0490805
-0.0386343
-0.0292583
-0.020556
-0.0121994
-0.00406625
-0.00254432
-0.007555
-0.0130433
-0.0191958
-0.0262057
-0.034808
-0.0446932
-0.0559217
-0.0678215
-0.0784101
-0.0860084
-0.0878175
-0.0812312
-0.0658408
-0.0422199
-0.0131088
0.0163632
0.0430134
0.065461
0.0840968
0.101881
0.11888
0.131347
0.133542
0.120419
0.0927187
0.0599219
0.0344186
0.0215286
0.0183349
0.0164898
0.00918074
-0.00354487
-0.0139656
-0.0139273
-0.00344147
0.0103238
0.0215303
0.0292957
0.0322051
0.0293854
0.0252038
0.0252899
0.0273953
0.0266169
0.0252314
0.0282716
0.0323211
0.0305398
0.0253817
0.0253819
0.03054
0.0323209
0.028271
0.0252311
0.0266173
0.0273961
0.0252904
0.0252038
0.0293848
0.0322039
0.029294
0.0215294
0.0103247
-0.00343956
-0.0139257
-0.0139643
-0.00354326
0.00918263
0.0164914
0.018336
0.0215292
0.0344186
0.0599212
0.0927183
0.120419
0.133542
0.131347
0.11888
0.101881
0.0840976
0.0654624
0.043015
0.0163647
-0.013108
-0.04222
-0.0658415
-0.0812322
-0.0878187
-0.0860096
-0.0784112
-0.0678226
-0.0559226
-0.0446941
-0.0348089
-0.0262065
-0.0191965
-0.0130439
-0.00755541
-0.00254449
-0.000191721
-0.000593223
-0.0017854
-0.00403273
-0.00761835
-0.0133877
-0.0208648
-0.0301466
-0.0406387
-0.0499523
-0.0563559
-0.0571535
-0.0495019
-0.0336279
-0.0107286
0.0163632
0.0421516
0.0641968
0.0824931
0.097951
0.113734
0.130223
0.142706
0.144397
0.131198
0.104781
0.0745089
0.0513085
0.038894
0.0334391
0.0269447
0.0146058
-0.00119885
-0.0122732
-0.0130047
-0.00494658
0.00599016
0.01619
0.0252182
0.0308838
0.0308874
0.0282251
0.0281009
0.0288839
0.0266709
0.0247975
0.0288353
0.0342324
0.0325269
0.0265284
0.0265284
0.0325267
0.034232
0.0288348
0.0247974
0.0266716
0.0288848
0.028101
0.0282242
0.030886
0.0308823
0.0252168
0.0161893
0.00599108
-0.00494452
-0.0130029
-0.0122723
-0.00119795
0.0146074
0.0269463
0.03344
0.0388941
0.051308
0.0745079
0.10478
0.131198
0.144397
0.142707
0.130223
0.113735
0.0979521
0.0824948
0.0641987
0.0421535
0.0163647
-0.0107281
-0.0336281
-0.0495024
-0.0571543
-0.0563565
-0.0499529
-0.0406392
-0.030147
-0.0208653
-0.0133883
-0.00761886
-0.00403323
-0.00178581
-0.000593468
-0.000191829
0.00252535
0.00750428
0.0114353
0.0138189
0.0142634
0.0117362
0.00659214
-0.00107483
-0.0105355
-0.019078
-0.0247159
-0.0249645
-0.0170137
-0.0016232
0.0193156
0.0430134
0.0641968
0.0810039
0.0944323
0.106169
0.119464
0.134709
0.146378
0.147234
0.134644
0.111004
0.0849358
0.06564
0.0551784
0.0482896
0.0373227
0.0203978
0.00266374
-0.00808913
-0.0094712
-0.00403676
0.00408297
0.0129468
0.0221496
0.0297524
0.0330447
0.0329995
0.0331467
0.032607
0.0291142
0.0266588
0.0307959
0.0367896
0.0357387
0.03007
0.0300697
0.0357381
0.0367892
0.0307957
0.026659
0.029115
0.0326077
0.0331465
0.032998
0.0330427
0.0297509
0.0221488
0.0129468
0.00408411
-0.00403468
-0.00946928
-0.00808818
0.0026643
0.020399
0.0373244
0.0482906
0.0551781
0.0656388
0.0849342
0.111003
0.134643
0.147234
0.146378
0.134709
0.119465
0.10617
0.0944339
0.0810058
0.0641987
0.043015
0.0193165
-0.0016228
-0.0170137
-0.0249649
-0.0247162
-0.0190781
-0.0105356
-0.00107465
0.00659234
0.0117363
0.0142635
0.0138189
0.0114352
0.00750426
0.00252531
0.00510559
0.0152376
0.0239617
0.030412
0.0343331
0.0345004
0.0311406
0.0248581
0.0163166
0.00831971
0.00330988
0.00341129
0.0112974
0.0260143
0.044998
0.065461
0.0824931
0.0944323
0.103266
0.111744
0.122699
0.136205
0.146453
0.146355
0.134674
0.114503
0.0937548
0.0797347
0.0723622
0.064452
0.0492979
0.0285458
0.00972672
-0.000597808
-0.00285696
0.000106016
0.00562667
0.012591
0.0206815
0.0293038
0.03593
0.0390139
0.0397098
0.038128
0.0338352
0.0308134
0.0340736
0.0397293
0.0396554
0.0352865
0.0352861
0.0396547
0.0397289
0.0340738
0.030814
0.033836
0.0381285
0.0397093
0.0390122
0.0359279
0.0293026
0.0206817
0.0125922
0.00562836
0.000108065
-0.00285488
-0.00059636
0.00972746
0.0285467
0.0492994
0.064453
0.0723616
0.0797328
0.0937525
0.114502
0.134673
0.146355
0.146453
0.136205
0.122699
0.111745
0.103267
0.0944339
0.0824948
0.0654624
0.0449987
0.0260146
0.0112973
0.003411
0.00330973
0.00831977
0.0163168
0.0248586
0.0311413
0.0345012
0.034334
0.0304127
0.0239623
0.015238
0.00510567
0.00667766
0.0199384
0.0316126
0.0406093
0.0468013
0.0488504
0.0468575
0.0419036
0.0344655
0.0273724
0.0235885
0.024735
0.0332165
0.0480822
0.0660329
0.0840968
0.097951
0.106169
0.111744
0.118286
0.127644
0.139544
0.14829
0.147147
0.136103
0.119351
0.104272
0.0957804
0.091206
0.0816761
0.0622357
0.0377966
0.0173898
0.00624847
0.00225909
0.00256098
0.00510628
0.00912394
0.0148255
0.0234908
0.0328621
0.0388619
0.040221
0.0381193
0.0337295
0.0303952
0.032138
0.0366079
0.0374055
0.0347726
0.0347723
0.0374051
0.0366078
0.0321386
0.030396
0.0337301
0.0381192
0.0402201
0.0388601
0.0328602
0.02349
0.0148264
0.00912613
0.00510858
0.00256295
0.00226102
0.00625029
0.017391
0.0377975
0.0622368
0.081677
0.0912056
0.0957784
0.10427
0.119349
0.136102
0.147147
0.14829
0.139545
0.127645
0.118287
0.111745
0.10617
0.0979522
0.0840976
0.066033
0.0480818
0.0332159
0.0247344
0.0235882
0.0273724
0.034466
0.0419044
0.0468586
0.0488517
0.0468026
0.0406105
0.0316136
0.0199391
0.00667784
0.0068111
0.020241
0.0321654
0.0414884
0.0480775
0.0508209
0.0496681
0.0459534
0.040215
0.0352325
0.0342449
0.0383544
0.0494502
0.0664076
0.0849932
0.101881
0.113734
0.119464
0.122699
0.127644
0.13522
0.144909
0.151269
0.148188
0.137007
0.123357
0.113913
0.110663
0.108388
0.0972072
0.0741243
0.0462887
0.0235261
0.0103124
0.0038702
0.0010167
-0.000306296
-0.000365949
0.00195393
0.00950512
0.0202325
0.0281608
0.0299905
0.0277301
0.0237742
0.0204897
0.020505
0.0230745
0.0240933
0.0229448
0.0229448
0.0240934
0.0230748
0.0205056
0.0204902
0.0237743
0.0277294
0.0299891
0.0281592
0.0202312
0.00950491
0.00195539
-0.000363102
-0.000303339
0.00101894
0.0038721
0.0103145
0.023528
0.0462901
0.0741253
0.0972079
0.108388
0.110661
0.113911
0.123356
0.137006
0.148189
0.15127
0.144909
0.13522
0.127645
0.122699
0.119465
0.113735
0.101881
0.0849929
0.0664068
0.049449
0.0383532
0.034244
0.035232
0.0402151
0.0459541
0.0496691
0.0508222
0.0480789
0.0414897
0.0321665
0.0202418
0.00681133
0.0054936
0.0162239
0.0258767
0.0334576
0.038706
0.0409963
0.040122
0.0376094
0.0343285
0.0327168
0.0360022
0.0449012
0.0603924
0.0809718
0.101689
0.11888
0.130223
0.134709
0.136205
0.139544
0.144909
0.151273
0.153569
0.146879
0.133991
0.12201
0.116731
0.117243
0.116246
0.103465
0.0774934
0.0466616
0.021365
0.00586418
-0.00293681
-0.00898393
-0.014276
-0.0181465
-0.0187549
-0.0125844
-0.00137579
0.00803455
0.0107645
0.00916748
0.00658277
0.0043699
0.0033077
0.00378151
0.00425885
0.00399059
0.0039909
0.00425957
0.00378221
0.00330811
0.00436987
0.00658212
0.00916605
0.0107627
0.00803311
-0.00137631
-0.0125838
-0.0187531
-0.0181436
-0.0142728
-0.00898143
-0.00293496
0.00586608
0.021367
0.046663
0.0774941
0.103465
0.116246
0.117242
0.116729
0.122009
0.133991
0.14688
0.153571
0.151274
0.144909
0.139544
0.136205
0.134709
0.130223
0.11888
0.101688
0.0809708
0.0603909
0.0448995
0.0360008
0.0327157
0.034328
0.0376095
0.0401225
0.0409972
0.038707
0.0334586
0.0258775
0.0162245
0.00549376
0.00339535
0.00984644
0.0156616
0.0200706
0.0228244
0.023917
0.0229573
0.021578
0.0210104
0.0231061
0.0309891
0.0451636
0.0654028
0.0898502
0.113212
0.131347
0.142706
0.146378
0.146453
0.14829
0.151269
0.153569
0.150799
0.139657
0.124161
0.112815
0.110561
0.113879
0.113819
0.100109
0.0724565
0.0397192
0.0127875
-0.00430996
-0.0151028
-0.0242606
-0.0330442
-0.0396576
-0.04221
-0.0374298
-0.0263645
-0.0157039
-0.0115788
-0.0117311
-0.0119673
-0.0118843
-0.0130461
-0.014552
-0.0151906
-0.0151209
-0.0151204
-0.0151895
-0.0145511
-0.013046
-0.011885
-0.0119688
-0.0117332
-0.0115809
-0.0157051
-0.0263642
-0.0374285
-0.042208
-0.0396552
-0.0330414
-0.0242581
-0.0151009
-0.00430854
0.0127888
0.03972
0.0724565
0.100108
0.113818
0.113878
0.110559
0.112814
0.124161
0.139659
0.150801
0.153571
0.15127
0.14829
0.146453
0.146378
0.142706
0.131347
0.113212
0.0898492
0.0654014
0.0451621
0.0309877
0.0231049
0.0210097
0.0215777
0.0229572
0.0239172
0.0228247
0.0200709
0.0156619
0.00984661
0.0033954
0.0013733
0.00371056
0.00576816
0.00692374
0.00686646
0.0061416
0.00428701
0.00304074
0.00405483
0.0086945
0.0199903
0.0382959
0.0621596
0.0895626
0.114995
0.133542
0.144397
0.147234
0.146355
0.147147
0.148188
0.146879
0.139657
0.124896
0.107624
0.0976248
0.0988704
0.105491
0.107272
0.0943031
0.067077
0.0346425
0.00806962
-0.0093594
-0.0216942
-0.0336974
-0.0451482
-0.0533722
-0.0571232
-0.0538746
-0.0435739
-0.0321204
-0.0265501
-0.0248709
-0.0221001
-0.0189022
-0.0195084
-0.0227923
-0.0246339
-0.0243176
-0.0243172
-0.0246329
-0.0227915
-0.0195084
-0.0189033
-0.0221022
-0.0248734
-0.0265522
-0.0321211
-0.043573
-0.0538725
-0.0571209
-0.0533701
-0.045146
-0.033695
-0.0216922
-0.00935824
0.00806999
0.0346424
0.0670763
0.0943018
0.107271
0.10549
0.0988689
0.0976237
0.107624
0.124897
0.139659
0.14688
0.148189
0.147147
0.146355
0.147234
0.144397
0.133542
0.114994
0.089562
0.0621587
0.0382949
0.0199894
0.00869368
0.0040543
0.00304033
0.00428669
0.00614138
0.00686619
0.00692348
0.00576794
0.00371037
0.00137324
0.000210396
3.82238e-05
-0.000421027
-0.00174358
-0.0044803
-0.00769292
-0.0117736
-0.0148994
-0.0148181
-0.0103161
0.00162578
0.0215014
0.0468984
0.0755997
0.101932
0.120419
0.131198
0.134644
0.134674
0.136103
0.137007
0.133991
0.124161
0.107624
0.0903836
0.0831188
0.0886552
0.0992929
0.104022
0.0935782
0.0690903
0.0396422
0.0158438
-0.000456274
-0.0136735
-0.0278302
-0.04091
-0.0498707
-0.0544156
-0.052848
-0.0438936
-0.032396
-0.0257762
-0.0222375
-0.0162733
-0.00988928
-0.00987084
-0.0146452
-0.0171246
-0.0160689
-0.0160688
-0.0171243
-0.0146448
-0.00987097
-0.00989043
-0.0162754
-0.0222399
-0.0257778
-0.0323958
-0.0438917
-0.052845
-0.0544126
-0.0498684
-0.040908
-0.0278279
-0.0136712
-0.000455056
0.0158435
0.039641
0.0690888
0.0935763
0.10402
0.0992908
0.0886533
0.0831172
0.0903826
0.107624
0.124161
0.133991
0.137006
0.136102
0.134673
0.134643
0.131198
0.120419
0.101933
0.0755998
0.0468982
0.0215011
0.00162539
-0.0103164
-0.0148182
-0.0148995
-0.0117737
-0.00769302
-0.00448057
-0.00174387
-0.000421338
3.79624e-05
0.000210331
-0.000175004
-0.00139856
-0.00330082
-0.00654884
-0.0120048
-0.0183833
-0.0258912
-0.0327117
-0.035848
-0.0339565
-0.0240304
-0.00516661
0.0195739
0.0477976
0.0740344
0.0927187
0.104781
0.111004
0.114503
0.119351
0.123357
0.12201
0.112815
0.0976248
0.0831188
0.0802074
0.090643
0.105572
0.113405
0.105782
0.0847085
0.0593041
0.0389155
0.0234895
0.00870702
-0.00805516
-0.0231557
-0.033608
-0.0398523
-0.0409072
-0.0345092
-0.0244062
-0.0177695
-0.0129312
-0.00436031
0.0044193
0.00468039
-0.00111415
-0.00320015
-0.000600126
-0.000600455
-0.00320081
-0.00111463
0.00467995
0.0044183
-0.0043621
-0.0129331
-0.0177702
-0.0244051
-0.0345065
-0.0409036
-0.0398486
-0.0336051
-0.0231535
-0.00805294
0.00870941
0.0234909
0.038915
0.0593022
0.0847064
0.10578
0.113403
0.10557
0.090641
0.0802055
0.0831172
0.0976237
0.112814
0.122009
0.123356
0.119349
0.114502
0.111003
0.10478
0.0927183
0.0740346
0.047798
0.019574
-0.00516648
-0.0240305
-0.0339565
-0.0358478
-0.0327114
-0.0258908
-0.0183829
-0.0120046
-0.00654863
-0.00330072
-0.00139853
-0.000174941
-0.000742602
-0.00328944
-0.00686521
-0.012243
-0.0206312
-0.0305927
-0.0420317
-0.0530936
-0.0600464
-0.0613338
-0.0540892
-0.0369818
-0.0135375
0.0137568
0.0400577
0.0599219
0.0745089
0.0849358
0.0937548
0.104272
0.113913
0.116731
0.110561
0.0988704
0.0886552
0.090643
0.105775
0.124322
0.134097
0.128226
0.110109
0.0886731
0.0711269
0.0555217
0.0381861
0.0180658
-0.000140156
-0.0136427
-0.0230424
-0.0279053
-0.0254027
-0.0182688
-0.012909
-0.00785096
0.00204909
0.0119879
0.0121796
0.00610233
0.00542719
0.0101542
0.0101536
0.0054258
0.0061009
0.0121785
0.0119868
0.00204794
-0.00785173
-0.0129085
-0.0182668
-0.0253995
-0.0279013
-0.0230383
-0.0136391
-0.000137531
0.018068
0.0381882
0.0555231
0.0711264
0.0886709
0.110107
0.128224
0.134096
0.12432
0.105773
0.090641
0.0886533
0.0988688
0.110559
0.116729
0.113911
0.10427
0.0937525
0.0849342
0.0745079
0.0599213
0.0400576
0.0137569
-0.0135374
-0.0369817
-0.0540893
-0.0613338
-0.0600461
-0.0530932
-0.0420309
-0.0305919
-0.0206304
-0.0122421
-0.00686457
-0.00328904
-0.00074239
-0.00221478
-0.00779047
-0.0146067
-0.0233224
-0.035177
-0.0485553
-0.0629962
-0.0768037
-0.0858496
-0.0885014
-0.0822666
-0.0654555
-0.0418745
-0.0142686
0.0129721
0.0344186
0.0513085
0.06564
0.0797347
0.0957804
0.110663
0.117243
0.113879
0.105491
0.0992929
0.105572
0.124322
0.144832
0.154651
0.149248
0.133541
0.115615
0.100082
0.0836756
0.0636618
0.0400982
0.0180361
0.000269141
-0.0132503
-0.0224567
-0.0244524
-0.0212045
-0.0181544
-0.0140833
-0.00421673
0.00604973
0.00656596
0.00125821
0.0025801
0.00939542
0.00939485
0.00257853
0.00125608
0.0065639
0.00604827
-0.00421727
-0.0140826
-0.0181525
-0.0212016
-0.024449
-0.0224528
-0.013246
0.000273261
0.0180393
0.0401002
0.063663
0.0836762
0.100082
0.115612
0.133538
0.149245
0.154649
0.14483
0.12432
0.105569
0.0992907
0.10549
0.113878
0.117242
0.110661
0.0957784
0.0797328
0.0656388