/*--------------------------------*- C++ -*----------------------------------*\
  =========                 |
  \\      /  F ield         | OpenFOAM: The Open Source CFD Toolbox
   \\    /   O peration     | Website:  https://openfoam.org
    \\  /    A nd           | Version:  10
     \\/     M anipulation  |
\*---------------------------------------------------------------------------*/
FoamFile
{
    format      ascii;
    class       volScalarField;
    location    "32";
    object      h_0;
}
// * * * * * * * * * * * * * * * * * * * * * * * * * * * * * * * * * * * * * //

dimensions      [0 1 0 0 0 0 0];

internalField   nonuniform List<scalar> 
10000
(
-0.000554504
-0.000655832
-9.43419e-05
-3.62846e-05
0.000290611
0.000650573
0.000300397
-0.000368193
-0.000702877
-0.00021812
0.000156643
-0.000283978
-0.000242888
0.00039439
0.000321538
-0.000342785
-0.000174227
0.0007447
0.000564385
-0.000424171
-0.000441416
0.000103229
-0.000314171
-0.00119732
-0.00127035
-0.000978618
-0.000913707
-0.000828077
0.00010905
0.00104445
0.000760901
-0.000156276
-0.000514345
0.000810929
0.00264264
0.00361632
0.002248
-0.00144761
-0.00613548
-0.00975578
-0.0105892
-0.00895823
-0.00623842
-0.00417155
-0.00263339
-0.000475444
0.00384413
0.0101685
0.0167886
0.0210194
0.0210193
0.0167884
0.0101683
0.00384397
-0.000475574
-0.00263348
-0.00417165
-0.00623854
-0.0089584
-0.0105894
-0.00975583
-0.0061353
-0.00144717
0.00224864
0.003617
0.00264316
0.00081125
-0.000514186
-0.000156028
0.00076121
0.00104471
0.000109038
-0.000828345
-0.00091402
-0.00097901
-0.00127078
-0.00119766
-0.000314209
0.000103325
-0.000441503
-0.000424186
0.000564767
0.000745041
-0.000174358
-0.000342956
0.000321715
0.000394606
-0.00024301
-0.000284079
0.000156853
-0.000218212
-0.000703397
-0.000368471
0.000300665
0.000651065
0.000290812
-3.62585e-05
-9.43838e-05
-0.000656435
-0.000555012
-0.000655832
-0.000211968
0.000597741
-0.000354416
-0.00035148
0.000340556
8.6006e-05
-0.00031501
-0.00043351
0.000225784
0.000463342
-0.000746003
-0.000694272
0.000683927
0.000279339
-0.001322
-0.000848953
0.00102812
0.000405396
-0.0016295
-0.00105903
0.000911095
0.00052765
-0.00101743
-0.000847201
-0.00023666
-0.000724611
-0.00132523
-1.838e-05
0.00108098
-0.000889586
-0.00437371
-0.00581142
-0.00261577
0.00236965
0.00513384
0.00171681
-0.00805019
-0.0206261
-0.0301255
-0.031868
-0.0263692
-0.0177311
-0.0106268
-0.00509175
0.00224302
0.0154782
0.034296
0.0536864
0.066042
0.0660419
0.0536862
0.0342956
0.0154779
0.00224281
-0.00509185
-0.010627
-0.0177314
-0.0263698
-0.0318687
-0.0301261
-0.0206262
-0.00804973
0.00171769
0.00513467
0.00236991
-0.00261614
-0.00581216
-0.0043741
-0.000889426
0.00108141
-1.82512e-05
-0.0013254
-0.000724618
-0.000236625
-0.000847299
-0.00101752
0.000528022
0.000911477
-0.00105943
-0.00162999
0.000405791
0.00102865
-0.000849335
-0.00132255
0.000279656
0.000684425
-0.000694659
-0.000746395
0.000463786
0.000226026
-0.000433813
-0.000315215
8.6182e-05
0.00034086
-0.000351781
-0.000354613
0.000598317
-0.00021219
-0.000656432
-9.43419e-05
0.000597741
0.000740608
-0.000552885
-0.000655868
-0.000238758
-0.00042016
-6.26392e-05
0.00032453
0.000351117
-9.0969e-06
-0.000821368
-0.000481995
0.000509847
-0.000228507
-0.00151377
-0.000735955
0.000622635
-0.000411006
-0.00214152
-0.00113469
0.000908617
0.000418249
-0.000950333
-0.000488735
0.000195363
-0.00067815
-0.00140212
-1.27383e-05
0.000758575
-0.00220504
-0.00705067
-0.00868985
-0.00458865
0.00202579
0.00525912
-0.00013177
-0.014757
-0.0337877
-0.0483928
-0.0517204
-0.0435772
-0.030144
-0.0178854
-0.00765122
0.0055617
0.0272545
0.0571064
0.0873206
0.106506
0.106506
0.0873203
0.057106
0.0272541
0.0055614
-0.00765137
-0.0178856
-0.0301445
-0.0435782
-0.0517218
-0.048394
-0.0337882
-0.0147565
-0.000130633
0.00526021
0.00202609
-0.00458933
-0.00869106
-0.00705149
-0.00220498
0.000759147
-1.23986e-05
-0.00140213
-0.000677997
0.000195718
-0.000488553
-0.000950293
0.000418668
0.00090909
-0.00113506
-0.00214225
-0.000410975
0.000623135
-0.000736102
-0.00151438
-0.00022841
0.000510392
-0.000482163
-0.000821831
-9.03239e-06
0.000351462
0.000324907
-6.25881e-05
-0.000420383
-0.000238798
-0.000656319
-0.000553362
0.000741232
0.000598324
-9.43798e-05
-3.62846e-05
-0.000354416
-0.000552885
-2.27515e-06
0.000500115
0.000257159
-0.000196488
-0.000423065
-0.000404183
-0.000523939
-0.000738909
-0.000312052
0.000163661
-0.000175276
-0.000690505
-0.000532228
0.000150054
0.000190085
-0.000723924
-0.00124408
-0.000593817
-0.000336471
-0.00157482
-0.00258707
-0.0022329
-0.00171132
-0.00223502
-0.00210697
-0.000322017
0.000567219
-0.00159905
-0.00536743
-0.00597782
-0.00181531
0.00437345
0.00644086
-0.00103709
-0.0191764
-0.0429084
-0.0619912
-0.0680468
-0.0595771
-0.0432224
-0.0262341
-0.0105264
0.00912808
0.0384138
0.0768311
0.114854
0.138825
0.138825
0.114854
0.0768306
0.0384133
0.00912765
-0.0105267
-0.0262344
-0.043223
-0.0595783
-0.0680484
-0.0619927
-0.0429088
-0.0191755
-0.00103517
0.00644293
0.0043748
-0.00181503
-0.00597823
-0.00536777
-0.00159871
0.000567933
-0.00032161
-0.00210719
-0.00223545
-0.00171159
-0.00223328
-0.00258758
-0.00157505
-0.000336205
-0.000593616
-0.00124428
-0.000724007
0.000190495
0.000150464
-0.000532363
-0.000690832
-0.00017515
0.000164082
-0.000312032
-0.000739247
-0.0005241
-0.000404198
-0.000423221
-0.000196644
0.000257469
0.000500685
-2.28793e-06
-0.000553362
-0.000354613
-3.62616e-05
0.000290611
-0.00035148
-0.000655868
0.000500115
2.67705e-05
-0.000668802
5.71394e-05
-5.40741e-05
-0.000408764
-0.000400544
-0.00054893
8.3639e-05
-5.76033e-05
-0.00136915
-0.00114381
5.12361e-05
-0.000178396
-0.00142997
-0.00155925
-0.00043342
3.85865e-05
-0.00080805
-0.00152365
-0.00137123
-0.00110116
-0.0010945
-0.00175796
-0.00219244
-0.00222387
-0.00286955
-0.00463065
-0.00693027
-0.00702487
-0.00427627
-0.000380185
-0.000235403
-0.00867429
-0.027352
-0.0519956
-0.0728183
-0.0807129
-0.0726309
-0.053788
-0.0312703
-0.00808538
0.0194866
0.0560527
0.100592
0.14318
0.169648
0.169648
0.14318
0.100592
0.0560525
0.0194863
-0.00808561
-0.0312706
-0.0537887
-0.0726322
-0.0807148
-0.0728202
-0.0519965
-0.0273516
-0.00867282
-0.000233749
-0.000379144
-0.00427617
-0.00702547
-0.00693106
-0.00463102
-0.00286945
-0.00222357
-0.00219236
-0.00175801
-0.00109436
-0.00110096
-0.00137121
-0.00152386
-0.000807932
3.9155e-05
-0.000433265
-0.00155978
-0.00143032
-0.000177975
5.16792e-05
-0.00114427
-0.00136973
-5.72241e-05
8.40291e-05
-0.000549102
-0.000400668
-0.000408835
-5.38821e-05
5.72529e-05
-0.000669247
2.69894e-05
0.000500681
-0.000656319
-0.000351784
0.000290806
0.000650573
0.000340556
-0.000238758
0.000257159
-0.000668802
-0.00108005
7.35167e-05
0.000109469
-0.000264845
-0.00031184
-0.000413901
-0.000122914
-0.000623914
-0.00145874
-0.000684176
0.000250157
-0.000841248
-0.00239166
-0.00171719
-0.000144967
-0.000501054
-0.00193772
-0.00194026
-0.00116984
-0.000993179
-0.000930573
-0.00112127
-0.0019815
-0.00372562
-0.00494483
-0.00511206
-0.00510343
-0.00505729
-0.00500024
-0.00504992
-0.00814921
-0.017712
-0.0358115
-0.0594138
-0.0807587
-0.0908578
-0.0849909
-0.0653816
-0.0378488
-0.00650929
0.0294085
0.0720881
0.1197
0.163142
0.189575
0.189575
0.163142
0.1197
0.0720882
0.0294083
-0.00650961
-0.0378493
-0.0653824
-0.0849924
-0.0908599
-0.0807608
-0.0594151
-0.0358115
-0.017711
-0.00814789
-0.00504886
-0.00499973
-0.00505726
-0.00510382
-0.00511258
-0.00494516
-0.0037255
-0.00198109
-0.00112095
-0.000930253
-0.000992816
-0.00116963
-0.00194054
-0.001938
-0.000500608
-0.000144496
-0.00171767
-0.00239248
-0.000841154
0.000250895
-0.00068414
-0.00145934
-0.000623956
-0.000122615
-0.000413904
-0.000311869
-0.00026484
0.000109825
7.38502e-05
-0.0010807
-0.000669251
0.000257466
-0.000238793
0.000340862
0.000651064
0.000300397
8.6006e-05
-0.00042016
-0.000196488
5.71394e-05
7.35167e-05
-0.000309774
-0.000675179
-0.000673766
-0.00073893
-0.000480072
-0.000409879
-0.000918754
-0.000798212
-0.000187475
-0.000194792
-0.0011958
-0.00178878
-0.000760629
-0.00013523
-0.00159134
-0.00312251
-0.00292663
-0.0026203
-0.00273759
-0.00232377
-0.00183192
-0.00289509
-0.00536863
-0.00564979
-0.00331387
-0.000833866
-0.00108427
-0.00412016
-0.00860036
-0.0153799
-0.0260746
-0.0427564
-0.0637155
-0.0842563
-0.0963572
-0.093827
-0.074871
-0.0431218
-0.00360474
0.0405006
0.0878878
0.135628
0.176463
0.200515
0.200515
0.176464
0.135628
0.0878884
0.0405006
-0.00360515
-0.0431225
-0.0748721
-0.0938286
-0.0963592
-0.0842584
-0.0637168
-0.0427567
-0.0260738
-0.0153786
-0.00859886
-0.00411869
-0.00108294
-0.000833076
-0.00331388
-0.00565026
-0.00536892
-0.00289482
-0.00183165
-0.00232381
-0.00273779
-0.00262053
-0.00292708
-0.00312312
-0.00159126
-0.000134485
-0.000760355
-0.00178924
-0.00119603
-0.000194365
-0.000187025
-0.000798357
-0.000919033
-0.000409712
-0.000479955
-0.000739041
-0.000673929
-0.000675446
-0.00030972
7.38525e-05
5.7251e-05
-0.000196643
-0.000420379
8.6181e-05
0.000300666
-0.000368193
-0.00031501
-6.26392e-05
-0.000423065
-5.40741e-05
0.000109469
-0.000675179
-0.000500301
-0.000258555
-0.000635843
-0.000401498
-0.000784011
-0.00128742
-0.000677978
-0.000653345
-0.00146728
-0.00189893
-0.00133484
-0.000464361
-0.000801033
-0.0020946
-0.00235658
-0.00157791
-0.00168861
-0.00223401
-0.00228829
-0.00243376
-0.0047739
-0.00814158
-0.00813354
-0.00479587
-0.00163568
-0.00317542
-0.00902564
-0.0172724
-0.0267488
-0.0376222
-0.051167
-0.0672225
-0.0843532
-0.0964842
-0.0963475
-0.0779655
-0.0421697
0.00550512
0.0575358
0.108552
0.154235
0.189898
0.209797
0.209797
0.1899
0.154237
0.108553
0.0575364
0.00550502
-0.0421704
-0.0779666
-0.096349
-0.0964859
-0.0843551
-0.067224
-0.051168
-0.0376224
-0.0267484
-0.0172716
-0.00902446
-0.00317411
-0.00163474
-0.00479599
-0.0081345
-0.00814256
-0.004774
-0.00243329
-0.00228796
-0.00223382
-0.00168839
-0.00157772
-0.00235685
-0.00209487
-0.000800613
-0.000463749
-0.00133491
-0.0018995
-0.00146752
-0.000652951
-0.000677787
-0.00128783
-0.000784066
-0.000401286
-0.000635844
-0.000258416
-0.00050046
-0.000675444
0.000109827
-5.38835e-05
-0.000423219
-6.25893e-05
-0.00031522
-0.00036847
-0.000702877
-0.00043351
0.00032453
-0.000404183
-0.000408764
-0.000264845
-0.000673766
-0.000258555
-0.000282869
-0.000664079
-0.000571251
-0.00108733
-0.00107926
-0.000421593
-0.000961507
-0.00203715
-0.00199598
-0.00102762
-0.00096017
-0.00220687
-0.00312098
-0.0024163
-0.00137906
-0.0015547
-0.00235629
-0.00292544
-0.00325394
-0.00528877
-0.00756247
-0.00700241
-0.00373277
-0.00139824
-0.00469702
-0.0131546
-0.0250383
-0.0373796
-0.049145
-0.0600155
-0.0714215
-0.0845278
-0.0960091
-0.097867
-0.0807608
-0.0423108
0.0117839
0.0701272
0.123089
0.164853
0.193483
0.208023
0.208024
0.193485
0.164855
0.123091
0.0701283
0.011784
-0.0423116
-0.0807621
-0.0978686
-0.0960108
-0.0845296
-0.0714233
-0.0600172
-0.0491462
-0.03738
-0.0250378
-0.0131534
-0.0046954
-0.00139671
-0.00373219
-0.00700288
-0.00756337
-0.00528915
-0.0032536
-0.00292503
-0.00235593
-0.00155429
-0.00137863
-0.00241641
-0.00312164
-0.00220707
-0.000959586
-0.00102725
-0.00199648
-0.00203773
-0.000961257
-0.000421061
-0.00107943
-0.00108763
-0.000571132
-0.000664044
-0.000282728
-0.000258417
-0.000673927
-0.000264841
-0.000408836
-0.000404195
0.000324904
-0.000433817
-0.000703393
-0.00021812
0.000225784
0.000351117
-0.000523939
-0.000400544
-0.00031184
-0.00073893
-0.000635843
-0.000664079
-0.000733769
-0.000912141
-0.00115918
-0.000667096
-0.000541271
-0.00134534
-0.00189233
-0.00132605
-0.000633753
-0.00148141
-0.00312061
-0.00377501
-0.00301097
-0.00222021
-0.00243076
-0.00386867
-0.00525754
-0.00529025
-0.00537245
-0.00539236
-0.00481312
-0.00286586
-0.00222345
-0.0066672
-0.0167694
-0.0311886
-0.0457653
-0.0581495
-0.0664744
-0.0734007
-0.0818552
-0.0914564
-0.0940222
-0.078281
-0.0386344
0.0194162
0.0818397
0.135016
0.171752
0.192529
0.201266
0.201267
0.192531
0.171754
0.135018
0.0818413
0.0194166
-0.0386351
-0.0782824
-0.0940239
-0.091458
-0.0818568
-0.0734026
-0.0664765
-0.0581513
-0.0457661
-0.0311883
-0.016768
-0.0066652
-0.0022214
-0.00286441
-0.0048126
-0.00539255
-0.00537296
-0.00529057
-0.00525773
-0.00386862
-0.00243045
-0.00221989
-0.00301108
-0.0037758
-0.00312121
-0.00148096
-0.000632904
-0.00132599
-0.00189289
-0.00134545
-0.000540723
-0.000666841
-0.00115951
-0.000912243
-0.00073365
-0.000664047
-0.000635844
-0.00073904
-0.000311873
-0.000400669
-0.000524096
0.00035146
0.000226027
-0.000218208
0.000156643
0.000463342
-9.0969e-06
-0.000738909
-0.00054893
-0.000413901
-0.000480072
-0.000401498
-0.000571251
-0.000912141
-0.00129341
-0.00104306
-0.000741172
-0.00154554
-0.0022104
-0.00175799
-0.0009295
-0.00111917
-0.00230823
-0.0030309
-0.00280428
-0.00213337
-0.00171809
-0.00221495
-0.00480028
-0.00745889
-0.00750504
-0.00574218
-0.00467083
-0.00583201
-0.00680353
-0.00832905
-0.0130833
-0.0236776
-0.0389435
-0.0542742
-0.0657998
-0.0710195
-0.0730702
-0.0759823
-0.0817049
-0.0827936
-0.0675735
-0.0278741
0.0315533
0.0956205
0.147585
0.179092
0.192363
0.195658
0.195659
0.192365
0.179095
0.147588
0.0956228
0.0315544
-0.0278742
-0.0675746
-0.0827949
-0.0817061
-0.0759834
-0.0730719
-0.0710219
-0.0658024
-0.0542758
-0.0389438
-0.0236766
-0.0130818
-0.00832762
-0.00680233
-0.00583118
-0.00467043
-0.00574259
-0.00750597
-0.0074597
-0.00480035
-0.00221426
-0.00171728
-0.00213292
-0.00280457
-0.00303159
-0.00230835
-0.00111843
-0.000928869
-0.00175831
-0.0022111
-0.00154555
-0.000740639
-0.00104304
-0.00129377
-0.000912243
-0.000571132
-0.000401283
-0.000479954
-0.000413907
-0.000549102
-0.000739247
-9.03395e-06
0.000463791
0.000156855
-0.000283978
-0.000746003
-0.000821368
-0.000312052
8.3639e-05
-0.000122914
-0.000409879
-0.000784011
-0.00108733
-0.00115918
-0.00104306
-0.00053444
-0.000964557
-0.00232247
-0.00233726
-0.001193
-0.00110692
-0.00265471
-0.00370935
-0.00307178
-0.00207999
-0.00204179
-0.00241952
-0.003109
-0.0056827
-0.00808736
-0.00724446
-0.00372464
-0.00250111
-0.0059894
-0.0104101
-0.0142273
-0.0195172
-0.0307033
-0.0465284
-0.0622954
-0.0727587
-0.0758074
-0.0741235
-0.0722554
-0.0732632
-0.0715922
-0.0564367
-0.0183607
0.0393971
0.102173
0.151556
0.178169
0.185167
0.184002
0.184003
0.185169
0.178172
0.151559
0.102176
0.0393988
-0.0183605
-0.0564375
-0.0715933
-0.0732643
-0.0722565
-0.0741253
-0.0758102
-0.072762
-0.062298
-0.0465294
-0.0307028
-0.0195159
-0.0142261
-0.010409
-0.00598811
-0.00249968
-0.00372408
-0.0072452
-0.00808853
-0.00568322
-0.00310853
-0.00241865
-0.00204094
-0.00207965
-0.00307235
-0.00371026
-0.00265478
-0.00110601
-0.00119253
-0.00233798
-0.00232319
-0.000964165
-0.000533771
-0.00104304
-0.00115951
-0.00108763
-0.000784065
-0.000409711
-0.000122615
8.40322e-05
-0.000312033
-0.000821834
-0.000746394
-0.000284083
-0.000242888
-0.000694272
-0.000481995
0.000163661
-5.76033e-05
-0.000623914
-0.000918754
-0.00128742
-0.00107926
-0.000667096
-0.000741172
-0.000964557
-0.00180529
-0.00234523
-0.00137093
-0.000582332
-0.00182206
-0.00399276
-0.00436289
-0.00274218
-0.00175904
-0.00311786
-0.00483997
-0.0055377
-0.00664904
-0.00753947
-0.00604189
-0.00231208
-0.00187358
-0.00715091
-0.014213
-0.0198046
-0.0257133
-0.0368808
-0.0521633
-0.0669299
-0.075562
-0.0767806
-0.0723186
-0.0664243
-0.0621695
-0.056723
-0.0411998
-0.00637834
0.0467482
0.105235
0.150821
0.173254
0.175834
0.171628
0.171628
0.175836
0.173256
0.150824
0.105238
0.0467503
-0.00637748
-0.0412001
-0.0567238
-0.0621703
-0.0664253
-0.0723204
-0.0767834
-0.0755656
-0.0669332
-0.052165
-0.0368808
-0.0257121
-0.0198035
-0.014212
-0.00714938
-0.00187147
-0.00231042
-0.00604174
-0.00754041
-0.00665008
-0.00553817
-0.00483984
-0.0031171
-0.00175807
-0.00274216
-0.00436408
-0.00399378
-0.00182154
-0.000581026
-0.00137065
-0.00234611
-0.00180579
-0.000964164
-0.000740636
-0.000666842
-0.00107943
-0.00128783
-0.000919033
-0.000623954
-5.72203e-05
0.000164081
-0.000482166
-0.000694662
-0.000243014
0.00039439
0.000683927
0.000509847
-0.000175276
-0.00136915
-0.00145874
-0.000798212
-0.000677978
-0.000421593
-0.000541271
-0.00154554
-0.00232247
-0.00234523
-0.00149803
-0.000774766
-0.00144853
-0.00307138
-0.0040881
-0.00331238
-0.00155887
-0.00141993
-0.00429747
-0.00728898
-0.00767249
-0.00663892
-0.00624082
-0.00590267
-0.00434822
-0.00530583
-0.011231
-0.0197346
-0.0268977
-0.033522
-0.0436251
-0.0565541
-0.0683178
-0.0741484
-0.0734118
-0.0668238
-0.0573402
-0.0475621
-0.037468
-0.0211355
0.00937648
0.0555136
0.107283
0.148223
0.167595
0.168025
0.162502
0.162502
0.168027
0.167597
0.148226
0.107287
0.0555163
0.00937819
-0.0211348
-0.037468
-0.0475624
-0.0573408
-0.0668252
-0.0734143
-0.0741518
-0.0683215
-0.0565566
-0.043626
-0.0335215
-0.0268968
-0.0197338
-0.0112299
-0.00530415
-0.00434643
-0.0059017
-0.00624088
-0.00663987
-0.00767382
-0.00728986
-0.00429709
-0.00141842
-0.00155771
-0.00331275
-0.00408943
-0.00307199
-0.00144767
-0.000773523
-0.0014979
-0.00234611
-0.00232319
-0.00154555
-0.000540723
-0.000421058
-0.000677784
-0.00079836
-0.00145935
-0.00136973
-0.000175152
0.000510395
0.000684431
0.000394608
0.000321538
0.000279339
-0.000228507
-0.000690505
-0.00114381
-0.000684176
-0.000187475
-0.000653345
-0.000961507
-0.00134534
-0.0022104
-0.00233726
-0.00137093
-0.000774766
-0.0019564
-0.00373945
-0.00413819
-0.00312051
-0.00196065
-0.00149949
-0.00254082
-0.00581892
-0.00871145
-0.00792233
-0.00466947
-0.00379492
-0.00605738
-0.00790121
-0.00999852
-0.0154943
-0.025001
-0.0344812
-0.0424903
-0.0510031
-0.0603499
-0.0681886
-0.071248
-0.0691334
-0.0613876
-0.0491627
-0.0343812
-0.0195077
-0.00223712
0.0233808
0.060911
0.104266
0.140055
0.157687
0.158328
0.153302
0.153302
0.158329
0.157688
0.140058
0.104269
0.0609139
0.0233832
-0.00223554
-0.0195069
-0.034381
-0.0491631
-0.0613888
-0.0691356
-0.0712512
-0.0681924
-0.0603534
-0.0510053
-0.0424909
-0.0344807
-0.0250001
-0.0154933
-0.00999746
-0.00789988
-0.0060558
-0.00379356
-0.00466929
-0.00792368
-0.00871316
-0.00581943
-0.00253969
-0.00149773
-0.00195968
-0.00312104
-0.00413963
-0.00374026
-0.00195572
-0.000773525
-0.00137065
-0.00233798
-0.0022111
-0.00134545
-0.000961254
-0.000652947
-0.000187027
-0.000684143
-0.00114427
-0.000690833
-0.000228406
0.000279662
0.000321715
-0.000342785
-0.001322
-0.00151377
-0.000532228
5.12361e-05
0.000250157
-0.000194792
-0.00146728
-0.00203715
-0.00189233
-0.00175799
-0.001193
-0.000582332
-0.00144853
-0.00373945
-0.00496352
-0.00368907
-0.00183141
-0.00208231
-0.0038592
-0.00548136
-0.00734521
-0.00852383
-0.006511
-0.00239103
-0.00223542
-0.00737897
-0.0122743
-0.0147651
-0.019255
-0.0295705
-0.0415818
-0.050722
-0.05654
-0.0611106
-0.064536
-0.0652396
-0.0624112
-0.05437
-0.0404548
-0.0218438
-0.00291613
0.0150246
0.0354296
0.063437
0.0972469
0.127543
0.144554
0.147476
0.144577
0.144577
0.147476
0.144555
0.127545
0.0972495
0.0634398
0.0354323
0.0150269
-0.00291446
-0.021843
-0.040455
-0.054371
-0.062413
-0.0652424
-0.0645396
-0.0611146
-0.0565436
-0.0507242
-0.0415821
-0.0295694
-0.0192535
-0.0147642
-0.0122736
-0.00737738
-0.00223293
-0.00238923
-0.00651129
-0.00852557
-0.00734676
-0.0054817
-0.00385829
-0.00208072
-0.00183045
-0.00368983
-0.00496526
-0.00374026
-0.00144767
-0.000581024
-0.00119253
-0.00175831
-0.0018929
-0.00203773
-0.00146752
-0.000194364
0.000250901
5.16847e-05
-0.000532365
-0.00151438
-0.00132255
-0.000342963
-0.000174227
-0.000848953
-0.000735955
0.000150054
-0.000178396
-0.000841248
-0.0011958
-0.00189893
-0.00199598
-0.00132605
-0.0009295
-0.00110692
-0.00182206
-0.00307138
-0.00413819
-0.00368907
-0.00182927
-0.00109803
-0.00361178
-0.00716749
-0.0084015
-0.00778399
-0.00708245
-0.00545524
-0.00279897
-0.00407041
-0.0108716
-0.0173753
-0.0198975
-0.0235733
-0.0342863
-0.0478576
-0.0566757
-0.058484
-0.0574347
-0.0564473
-0.055322
-0.0522424
-0.0444836
-0.0298418
-0.00890662
0.012944
0.0311783
0.0466057
0.0650668
0.0889905
0.113697
0.13098
0.137811
0.138359
0.138359
0.137811
0.13098
0.113698
0.0889924
0.0650694
0.0466087
0.0311814
0.0129466
-0.00890499
-0.0298414
-0.0444842
-0.0522436
-0.055324
-0.0564502
-0.0574386
-0.0584885
-0.0566794
-0.0478591
-0.0342855
-0.0235714
-0.0198964
-0.0173752
-0.0108708
-0.00406813
-0.00279641
-0.00545414
-0.00708313
-0.00778573
-0.00840331
-0.00716823
-0.00361072
-0.001096
-0.00182824
-0.00368983
-0.00413963
-0.00307199
-0.00182154
-0.001106
-0.000928868
-0.00132599
-0.00199648
-0.0018995
-0.00119603
-0.000841149
-0.000177972
0.00015046
-0.000736105
-0.000849339
-0.00017436
0.0007447
0.00102812
0.000622635
0.000190085
-0.00142997
-0.00239166
-0.00178878
-0.00133484
-0.00102762
-0.000633753
-0.00111917
-0.00265471
-0.00399276
-0.0040881
-0.00312051
-0.00183141
-0.00109803
-0.00208765
-0.00549101
-0.00888685
-0.00870226
-0.0058456
-0.00465554
-0.0057129
-0.00645973
-0.00900421
-0.0157116
-0.0228495
-0.0262871
-0.0300234
-0.0403081
-0.0533058
-0.0598815
-0.0568987
-0.0502499
-0.0454464
-0.0430051
-0.0400594
-0.032944
-0.0185769
0.00309566
0.026524
0.0447726
0.0559771
0.0657392
0.0801893
0.0994653
0.117626
0.129448
0.134364
0.134363
0.129447
0.117626
0.0994657
0.0801906
0.0657413
0.0559801
0.0447761
0.0265274
0.00309818
-0.0185757
-0.0329439
-0.0400599
-0.0430061
-0.0454482
-0.0502531
-0.0569034
-0.0598865
-0.053309
-0.0403084
-0.0300219
-0.0262858
-0.0228493
-0.0157115
-0.00900313
-0.00645772
-0.00571087
-0.00465437
-0.00584605
-0.00870422
-0.00888881
-0.00549126
-0.00208603
-0.00109599
-0.00183044
-0.00312104
-0.00408944
-0.00399378
-0.00265478
-0.00111843
-0.000632901
-0.00102725
-0.00133491
-0.00178924
-0.00239248
-0.00143032
0.000190494
0.000623146
0.00102866
0.000745044
0.000564385
0.000405396
-0.000411006
-0.000723924
-0.00155925
-0.00171719
-0.000760629
-0.000464361
-0.00096017
-0.00148141
-0.00230823
-0.00370935
-0.00436289
-0.00331238
-0.00196065
-0.00208231
-0.00361178
-0.00549101
-0.00751802
-0.00860168
-0.00653199
-0.00255469
-0.00220871
-0.00672372
-0.0108115
-0.0136405
-0.0191786
-0.0273783
-0.0336222
-0.0385473
-0.0472592
-0.0573619
-0.0604994
-0.0531681
-0.0421358
-0.0344892
-0.0312273
-0.0286373
-0.0224244
-0.00919136
0.0118931
0.0357512
0.0540932
0.0623327
0.0650577
0.0711097
0.0854131
0.104762
0.122109
0.131872
0.131871
0.122109
0.104762
0.0854129
0.0711103
0.0650592
0.0623353
0.0540967
0.035755
0.0118962
-0.00918937
-0.0224236
-0.0286372
-0.0312278
-0.0344904
-0.0421383
-0.0531726
-0.0605052
-0.0573669
-0.0472616
-0.0385471
-0.033621
-0.0273773
-0.0191781
-0.0136401
-0.0108105
-0.00672156
-0.00220586
-0.00255299
-0.00653263
-0.00860377
-0.00751971
-0.00549126
-0.00361072
-0.00208072
-0.00195968
-0.00331276
-0.00436408
-0.00371026
-0.00230836
-0.00148096
-0.000959579
-0.00046375
-0.000760357
-0.00171767
-0.00155978
-0.000724008
-0.000410966
0.000405792
0.000564765
-0.000424171
-0.0016295
-0.00214152
-0.00124408
-0.00043342
-0.000144967
-0.00013523
-0.000801033
-0.00220687
-0.00312061
-0.0030309
-0.00307178
-0.00274218
-0.00155887
-0.00149949
-0.0038592
-0.00716749
-0.00888685
-0.00860168
-0.00742534
-0.00512837
-0.00220416
-0.00339982
-0.00999974
-0.0154242
-0.0172269
-0.0211262
-0.0306948
-0.0402414
-0.0457856
-0.0507367
-0.0556856
-0.0549936
-0.0448803
-0.0315222
-0.0224133
-0.0191693
-0.0176069
-0.0131911
-0.00229812
0.0166616
0.0397231
0.0580238
0.064481
0.061909
0.060822
0.0705373
0.0909337
0.11366
0.12825
0.12825
0.113659
0.0909326
0.0705365
0.0608218
0.0619097
0.0644829
0.058027
0.0397269
0.0166651
-0.00229545
-0.0131894
-0.0176061
-0.019169
-0.0224136
-0.0315238
-0.0448838
-0.0549989
-0.0556914
-0.0507411
-0.0457876
-0.0402411
-0.0306931
-0.0211244
-0.0172263
-0.0154242
-0.00999867
-0.00339697
-0.00220124
-0.00512731
-0.00742635
-0.00860379
-0.00888882
-0.00716823
-0.00385829
-0.00149773
-0.00155771
-0.00274215
-0.00307234
-0.00303159
-0.00312121
-0.00220706
-0.000800615
-0.00013448
-0.000144486
-0.000433266
-0.00124428
-0.00214225
-0.00163001
-0.000424192
-0.000441416
-0.00105903
-0.00113469
-0.000593817
3.85865e-05
-0.000501054
-0.00159134
-0.0020946
-0.00312098
-0.00377501
-0.00280428
-0.00207999
-0.00175904
-0.00141993
-0.00254082
-0.00548136
-0.0084015
-0.00870226
-0.00653199
-0.00512837
-0.00556129
-0.00617351
-0.00919806
-0.0161253
-0.0215443
-0.0225955
-0.025405
-0.0357352
-0.0467142
-0.0503395
-0.0487833
-0.0466964
-0.0422376
-0.0310249
-0.0172105
-0.00777844
-0.00527623
-0.00558746
-0.00402953
0.00338013
0.0190181
0.0403394
0.0584926
0.0642447
0.0580946
0.0512386
0.056728
0.0777052
0.105107
0.124079
0.124079
0.105106
0.0777039
0.0567268
0.0512378
0.0580946
0.064246
0.0584951
0.0403428
0.0190216
0.00338337
-0.00402697
-0.00558565
-0.00527504
-0.0077779
-0.017211
-0.031027
-0.0422415
-0.0467015
-0.0487887
-0.0503437
-0.0467159
-0.035734
-0.0254025
-0.0225942
-0.0215447
-0.0161257
-0.00919684
-0.00617113
-0.0055591
-0.00512732
-0.00653264
-0.00870422
-0.0084033
-0.0054817
-0.00253968
-0.00141841
-0.00175806
-0.00207965
-0.00280457
-0.0037758
-0.00312165
-0.00209488
-0.00159126
-0.000500603
3.91499e-05
-0.000593616
-0.00113506
-0.00105944
-0.0004415
0.000103229
0.000911095
0.000908617
-0.000336471
-0.00080805
-0.00193772
-0.00312251
-0.00235658
-0.0024163
-0.00301097
-0.00213337
-0.00204179
-0.00311786
-0.00429747
-0.00581892
-0.00734521
-0.00778399
-0.0058456
-0.00255469
-0.00220416
-0.00617351
-0.010254
-0.0140913
-0.0203614
-0.026763
-0.0299219
-0.0338286
-0.0445173
-0.054813
-0.0547343
-0.0456606
-0.0362936
-0.0285325
-0.0172052
-0.0036513
0.00617236
0.00827362
0.00631718
0.00507833
0.00924619
0.021817
0.041675
0.0602835
0.0667311
0.0589717
0.0480293
0.0498951
0.0709314
0.101994
0.12461
0.124609
0.101993
0.0709302
0.0498938
0.0480282
0.0589713
0.0667318
0.0602853
0.0416779
0.0218205
0.00924988
0.00508187
0.00632022
0.00827591
0.00617373
-0.00365107
-0.0172063
-0.028535
-0.0362977
-0.0456663
-0.0547406
-0.0548178
-0.0445186
-0.0338271
-0.0299201
-0.0267625
-0.0203617
-0.0140913
-0.0102529
-0.00617112
-0.00220125
-0.00255299
-0.00584603
-0.00778572
-0.00734675
-0.00581943
-0.00429709
-0.0031171
-0.00204095
-0.00213293
-0.00301108
-0.00241641
-0.00235686
-0.00312312
-0.001938
-0.00080794
-0.000336196
0.000909099
0.000911478
0.000103336
-0.000314171
0.00052765
0.000418249
-0.00157482
-0.00152365
-0.00194026
-0.00292663
-0.00157791
-0.00137906
-0.00222021
-0.00171809
-0.00241952
-0.00483997
-0.00728898
-0.00871145
-0.00852383
-0.00708245
-0.00465554
-0.00220871
-0.00339982
-0.00919806
-0.0140913
-0.0166002
-0.0212624
-0.0293456
-0.0360058
-0.0411029
-0.0499616
-0.057107
-0.0529734
-0.0380025
-0.0236489
-0.0146077
-0.00523387
0.00626755
0.0151246
0.0158659
0.0114877
0.00698129
0.00806657
0.0179988
0.0368568
0.0563888
0.0646436
0.0569767
0.0436499
0.0425902
0.0631687
0.0966716
0.121994
0.121993
0.0966708
0.0631675
0.0425888
0.0436486
0.056976
0.0646436
0.0563898
0.0368586
0.0180014
0.00806994
0.0069851
0.0114915
0.015869
0.0151266
0.00626824
-0.00523427
-0.0146091
-0.0236516
-0.0380074
-0.0529803
-0.0571137
-0.0499656
-0.0411034
-0.0360044
-0.0293437
-0.0212611
-0.0165998
-0.0140912
-0.00919682
-0.00339696
-0.00220585
-0.00465436
-0.00708313
-0.00852557
-0.00871317
-0.00728986
-0.00483985
-0.00241865
-0.00171728
-0.00221988
-0.00137863
-0.00157773
-0.00292707
-0.00194054
-0.00152387
-0.00157504
0.000418669
0.000528019
-0.000314201
-0.00119732
-0.00101743
-0.000950333
-0.00258707
-0.00137123
-0.00116984
-0.0026203
-0.00168861
-0.0015547
-0.00243076
-0.00221495
-0.003109
-0.0055377
-0.00767249
-0.00792233
-0.006511
-0.00545524
-0.0057129
-0.00672372
-0.00999974
-0.0161253
-0.0203614
-0.0212624
-0.0244316
-0.0336284
-0.0419631
-0.0450858
-0.0479587
-0.0490318
-0.0409061
-0.0223546
-0.00554147
0.00304369
0.00871318
0.0161858
0.0220132
0.0197863
0.0117533
0.00338144
0.00144404
0.00913937
0.0272034
0.0476262
0.0580404
0.05149
0.0370528
0.0335754
0.0530137
0.0875085
0.114407
0.114407
0.0875078
0.0530125
0.033574
0.0370514
0.0514889
0.0580398
0.0476262
0.027204
0.00914086
0.00144658
0.00338497
0.0117574
0.0197901
0.022016
0.0161872
0.00871358
0.00304354
-0.00554245
-0.0223576
-0.0409116
-0.0490384
-0.0479643
-0.0450889
-0.0419636
-0.0336266
-0.024429
-0.0212611
-0.0203617
-0.0161257
-0.00999869
-0.00672158
-0.00571087
-0.00545415
-0.0065113
-0.00792368
-0.00767382
-0.00553817
-0.00310853
-0.00221426
-0.00243044
-0.00155429
-0.00168839
-0.00262051
-0.00116964
-0.00137122
-0.00258758
-0.000950304
-0.00101753
-0.00119766
-0.00127035
-0.000847201
-0.000488735
-0.0022329
-0.00110116
-0.000993179
-0.00273759
-0.00223401
-0.00235629
-0.00386867
-0.00480028
-0.0056827
-0.00664904
-0.00663892
-0.00466947
-0.00239103
-0.00279897
-0.00645973
-0.0108115
-0.0154242
-0.0215443
-0.026763
-0.0293456
-0.0336284
-0.0439951
-0.0519371
-0.0503317
-0.044354
-0.0375687
-0.0253921
-0.00420044
0.0148471
0.0239262
0.0266947
0.0301666
0.0324105
0.0269595
0.0153295
0.0035881
-0.000635436
0.00552871
0.022908
0.0437548
0.0559389
0.0507792
0.0359355
0.0302432
0.0476536
0.0815077
0.108711
0.108711
0.0815071
0.0476525
0.0302418
0.0359341
0.050778
0.0559381
0.0437543
0.022908
0.00552938
-0.000633543
0.00359143
0.015334
0.0269642
0.0324147
0.0301694
0.0266965
0.0239274
0.0148477
-0.0042016
-0.0253957
-0.0375742
-0.0443603
-0.0503377
-0.0519412
-0.0439959
-0.0336266
-0.0293437
-0.0267625
-0.0215447
-0.0154243
-0.0108105
-0.00645771
-0.00279641
-0.00238922
-0.00466928
-0.00663985
-0.00665008
-0.00568322
-0.00480035
-0.00386862
-0.00235595
-0.00223382
-0.00273778
-0.000992825
-0.00110096
-0.00223327
-0.000488563
-0.0008473
-0.00127078
-0.000978618
-0.00023666
0.000195363
-0.00171132
-0.0010945
-0.000930573
-0.00232377
-0.00228829
-0.00292544
-0.00525754
-0.00745889
-0.00808736
-0.00753947
-0.00624082
-0.00379492
-0.00223542
-0.00407041
-0.00900421
-0.0136405
-0.0172269
-0.0225955
-0.0299219
-0.0360058
-0.0419631
-0.0519371
-0.0575984
-0.051082
-0.0375762
-0.0252634
-0.011876
0.00899866
0.0285044
0.0376883
0.037449
0.0364963
0.0347104
0.0265906
0.0127673
-0.000232988
-0.00450172
0.0022557
0.0203279
0.0422642
0.056704
0.0539496
0.0401127
0.0331625
0.0483279
0.0803807
0.106839
0.106838
0.0803802
0.0483271
0.0331614
0.0401115
0.0539486
0.0567032
0.0422635
0.0203273
0.00225554
-0.00450074
-0.000230444
0.0127714
0.0265955