/*--------------------------------*- C++ -*----------------------------------*\
  =========                 |
  \\      /  F ield         | OpenFOAM: The Open Source CFD Toolbox
   \\    /   O peration     | Website:  https://openfoam.org
    \\  /    A nd           | Version:  10
     \\/     M anipulation  |
\*---------------------------------------------------------------------------*/
FoamFile
{
    format      ascii;
    class       volScalarField;
    location    "78";
    object      h;
}
// * * * * * * * * * * * * * * * * * * * * * * * * * * * * * * * * * * * * * //

dimensions      [0 1 0 0 0 0 0];

internalField   nonuniform List<scalar> 
10000
(
0.00053624
0.00146619
0.00199798
0.00200284
0.00156812
0.00095318
0.000441696
0.000184096
9.16576e-05
-0.000103548
-0.000600294
-0.00131884
-0.00191448
-0.00200632
-0.00146742
-0.000525989
0.00044552
0.00123575
0.00188372
0.0025136
0.00307526
0.00331219
0.00297795
0.00201058
0.000550577
-0.00112063
-0.00271376
-0.00403719
-0.00493999
-0.00527067
-0.00495519
-0.00404592
-0.00264491
-0.000826535
0.00131147
0.00357957
0.00577758
0.00774038
0.00927732
0.0102592
0.0108158
0.0112869
0.0119021
0.0125853
0.0131569
0.0135967
0.0139808
0.0143052
0.0145014
0.0145665
0.0145666
0.0145018
0.0143059
0.0139817
0.0135978
0.0131583
0.0125869
0.0119037
0.0112883
0.010817
0.0102602
0.00927804
0.00774089
0.00577791
0.00357977
0.00131161
-0.000826405
-0.00264478
-0.00404581
-0.00495514
-0.00527067
-0.00494002
-0.00403721
-0.00271377
-0.00112066
0.000550544
0.00201055
0.00297795
0.00331223
0.00307534
0.0025137
0.00188384
0.0012359
0.000445688
-0.000525845
-0.00146733
-0.00200626
-0.00191441
-0.00131874
-0.000600215
-0.000103525
9.16268e-05
0.000184046
0.00044166
0.000953171
0.00156814
0.00200287
0.001998
0.00146619
0.00053623
0.00146619
0.00397386
0.0053011
0.00507506
0.00355893
0.00152294
-0.000182766
-0.00109946
-0.00148689
-0.00214345
-0.00365654
-0.0057819
-0.00750086
-0.00770425
-0.00603368
-0.00316819
-0.00021375
0.0021846
0.00411926
0.00595508
0.00756812
0.00823
0.00722617
0.00437249
8.02383e-05
-0.00482418
-0.00949647
-0.0133849
-0.0160584
-0.0170758
-0.0162081
-0.0135826
-0.00947437
-0.00410171
0.00221855
0.00889712
0.0153456
0.0211172
0.0256961
0.0287078
0.0304886
0.031979
0.0338308
0.0358463
0.0375406
0.0388728
0.0400502
0.0410345
0.0416155
0.0418001
0.0418005
0.0416166
0.0410362
0.0400526
0.0388758
0.0375443
0.0358504
0.0338351
0.0319829
0.0304918
0.0287104
0.0256981
0.0211187
0.0153466
0.00889783
0.00221911
-0.00410116
-0.00947381
-0.0135821
-0.0162078
-0.0170757
-0.0160583
-0.013385
-0.00949658
-0.00482437
7.99717e-05
0.00437218
0.00722591
0.00822985
0.00756808
0.00595512
0.00411939
0.00218483
-0.000213463
-0.00316794
-0.00603353
-0.00770414
-0.0075007
-0.00578168
-0.00365635
-0.00214338
-0.00148695
-0.00109956
-0.000182822
0.00152296
0.00355902
0.00507518
0.0053012
0.00397389
0.00146618
0.00199798
0.0053011
0.00669008
0.00557762
0.00240193
-0.00157324
-0.00493248
-0.00689226
-0.00786337
-0.00915169
-0.0117094
-0.0151245
-0.0177494
-0.0178269
-0.0148202
-0.00985189
-0.00474339
-0.000602987
0.0026605
0.00564081
0.00820999
0.00927197
0.00770503
0.00320482
-0.00357489
-0.011313
-0.0186809
-0.0248407
-0.0291504
-0.0309205
-0.0297416
-0.0257288
-0.0192441
-0.0106373
-0.000501
0.0101352
0.0203389
0.0295117
0.0369575
0.0420929
0.0453272
0.0479973
0.0510749
0.054313
0.057057
0.0592948
0.0613151
0.0629823
0.063934
0.0642177
0.0642182
0.0639354
0.0629846
0.0613182
0.0592988
0.0570621
0.0543187
0.0510808
0.0480027
0.0453318
0.0420966
0.0369604
0.0295139
0.0203406
0.0101367
-0.000499655
-0.0106359
-0.0192428
-0.0257276
-0.0297407
-0.0309199
-0.0291501
-0.0248407
-0.0186812
-0.0113137
-0.00357573
0.00320382
0.007704
0.00927106
0.00820924
0.00564025
0.00266015
-0.000603151
-0.00474345
-0.00985194
-0.0148203
-0.0178269
-0.0177493
-0.0151243
-0.0117092
-0.00915159
-0.0078634
-0.00689233
-0.00493249
-0.00157311
0.00240216
0.00557787
0.00669027
0.00530119
0.001998
0.00200284
0.00507506
0.00557762
0.00273717
-0.00283939
-0.00941416
-0.0150133
-0.0185163
-0.0204463
-0.0225579
-0.0261309
-0.0306043
-0.0337736
-0.0333241
-0.0285978
-0.0211639
-0.0135536
-0.0073727
-0.00258153
0.00163815
0.00524348
0.00690613
0.00518052
-0.000355896
-0.00885544
-0.0185914
-0.0278725
-0.0357004
-0.0413352
-0.0438987
-0.0427603
-0.0378999
-0.0296586
-0.0185034
-0.00535124
0.00832736
0.0213514
0.0331402
0.0429883
0.0501496
0.0549529
0.0588815
0.0630901
0.0673528
0.0709967
0.0740944
0.0769656
0.0793181
0.0806264
0.0809978
0.0809983
0.0806277
0.0793202
0.0769686
0.0740984
0.0710018
0.0673586
0.0630962
0.0588873
0.0549579
0.0501537
0.0429916
0.033143
0.0213539
0.00832981
-0.00534878
-0.0185009
-0.0296562
-0.0378977
-0.0427584
-0.0438974
-0.0413345
-0.0357004
-0.0278732
-0.0185927
-0.00885716
-0.000357913
0.00517837
0.00690402
0.00524158
0.00163657
-0.00258273
-0.00737359
-0.0135543
-0.0211645
-0.0285983
-0.0333244
-0.0337737
-0.0306043
-0.0261308
-0.0225578
-0.0204463
-0.0185163
-0.0150132
-0.00941392
-0.00283903
0.00273753
0.00557786
0.00507518
0.00200286
0.00156812
0.00355893
0.00240193
-0.00283939
-0.0113993
-0.0210927
-0.029415
-0.0349094
-0.0381486
-0.0412309
-0.0457096
-0.0509144
-0.0541743
-0.0527029
-0.0457719
-0.0354072
-0.0248469
-0.0162103
-0.00953959
-0.00379791
0.0011366
0.00385104
0.0026893
-0.00287275
-0.0118663
-0.0223049
-0.0323153
-0.0408972
-0.047337
-0.050628
-0.0498792
-0.0448287
-0.0357151
-0.0231103
-0.0082463
0.00706049
0.0215367
0.0347737
0.0461861
0.0549084
0.0610752
0.0661058
0.0711971
0.0761723
0.080444
0.0842104
0.0878039
0.0907633
0.0924014
0.0928653
0.0928656
0.0924023
0.0907649
0.0878063
0.0842135
0.080448
0.076177
0.0712023
0.0661109
0.0610798
0.0549123
0.0461894
0.0347767
0.0215398
0.00706386
-0.0082427
-0.0231067
-0.0357115
-0.0448253
-0.0498763
-0.0506259
-0.0473358
-0.0408972
-0.0323163
-0.0223069
-0.0118689
-0.00287574
0.00268608
0.00384781
0.00113362
-0.00380044
-0.00954158
-0.0162119
-0.0248482
-0.0354083
-0.0457727
-0.0527034
-0.0541745
-0.0509145
-0.0457095
-0.0412308
-0.0381486
-0.0349094
-0.0294148
-0.0210924
-0.0113989
-0.00283903
0.00240216
0.00355902
0.00156813
0.00095318
0.00152294
-0.00157324
-0.00941416
-0.0210927
-0.0340246
-0.0452239
-0.0529064
-0.0576175
-0.0616726
-0.0668318
-0.0723575
-0.0752103
-0.0722242
-0.0626545
-0.0489896
-0.035149
-0.0237461
-0.0149065
-0.00738331
-0.000830831
0.00339919
0.00358259
-0.000861036
-0.00892604
-0.0185626
-0.0279414
-0.0362236
-0.0428211
-0.0466495
-0.0465479
-0.0419675
-0.0330151
-0.020347
-0.00541903
0.00980001
0.0241297
0.0374261
0.0492747
0.0587262
0.0656821
0.0713719
0.0769122
0.0821458
0.0865998
0.0906181
0.0945791
0.0979126
0.0997947
0.100353
0.100353
0.0997952
0.0979136
0.0945806
0.0906202
0.0866024
0.0821489
0.0769158
0.0713757
0.0656857
0.0587295
0.0492777
0.037429
0.0241329
0.00980383
-0.00541472
-0.0203425
-0.0330106
-0.0419633
-0.0465442
-0.0466467
-0.0428195
-0.0362234
-0.0279427
-0.0185649
-0.0089291
-0.000864533
0.00357886
0.00339547
-0.000834222
-0.00738614
-0.0149087
-0.0237478
-0.0351504
-0.0489907
-0.0626554
-0.0722247
-0.0752105
-0.0723574
-0.0668317
-0.0616726
-0.0576175
-0.0529064
-0.0452238
-0.0340243
-0.0210924
-0.00941391
-0.00157311
0.00152296
0.000953163
0.000441696
-0.000182766
-0.00493248
-0.0150133
-0.029415
-0.0452239
-0.0590275
-0.0687175
-0.074745
-0.0795312
-0.0849735
-0.0902994
-0.0922084
-0.0872723
-0.0747979
-0.0577262
-0.0406033
-0.0264864
-0.0155618
-0.00636521
0.00173058
0.00757301
0.0095196
0.00700029
0.000985789
-0.00661049
-0.014223
-0.0213018
-0.0274444
-0.0315426
-0.0322162
-0.0286627
-0.0208656
-0.00951431
0.00387159
0.0174046
0.0301478
0.0422246
0.0533665
0.0625749
0.0695481
0.0752788
0.0807083
0.0856313
0.0896602
0.0932885
0.0970172
0.100294
0.102218
0.102826
0.102826
0.102218
0.100295
0.097018
0.0932896
0.0896615
0.0856327
0.08071
0.0752808
0.0695502
0.062577
0.0533687
0.042227
0.0301506
0.0174081
0.00387579
-0.00950968
-0.0208608
-0.0286582
-0.0322123
-0.0315395
-0.0274425
-0.0213013
-0.014224
-0.00661258
0.000982962
0.00699707
0.00951624
0.00756979
0.00172777
-0.00636747
-0.0155635
-0.0264876
-0.0406042
-0.0577269
-0.0747984
-0.0872726
-0.0922084
-0.0902993
-0.0849734
-0.0795312
-0.0747451
-0.0687176
-0.0590275
-0.0452238
-0.0294148
-0.0150132
-0.00493248
-0.000182827
0.000441651
0.000184096
-0.00109946
-0.00689226
-0.0185163
-0.0349094
-0.0529064
-0.0687175
-0.079915
-0.0868075
-0.0918301
-0.0969487
-0.101386
-0.101717
-0.0944129
-0.0789141
-0.0585807
-0.0385005
-0.0221198
-0.00966975
0.000550565
0.0095306
0.0164627
0.0199269
0.0194268
0.0158473
0.010817
0.00549459
9.20629e-05
-0.00518894
-0.00929154
-0.0107415
-0.00858265
-0.00269381
0.00629172
0.0169797
0.0277646
0.0380208
0.0480605
0.0576932
0.0659045
0.0722459
0.0774622
0.0822527
0.0863017
0.089264
0.0917751
0.0945428
0.0971855
0.0988215
0.0993586
0.0993586
0.0988216
0.0971858
0.0945433
0.0917756
0.0892643
0.0863018
0.0822528
0.0774623
0.0722463
0.0659053
0.0576942
0.0480618
0.0380226
0.027767
0.0169829
0.00629563
-0.00268954
-0.00857841
-0.0107377
-0.00928845
-0.00518685
9.29738e-05
0.00549432
0.0108158
0.0158454
0.0194246
0.0199246
0.0164607
0.00952906
0.000549468
-0.00967046
-0.0221202
-0.0385007
-0.0585807
-0.078914
-0.0944128
-0.101717
-0.101386
-0.0969487
-0.0918301
-0.0868077
-0.0799151
-0.0687176
-0.0529064
-0.0349094
-0.0185163
-0.00689233
-0.00109957
0.000184035
9.16576e-05
-0.00148689
-0.00786337
-0.0204463
-0.0381486
-0.0576175
-0.074745
-0.0868075
-0.0939346
-0.0984847
-0.102426
-0.105029
-0.102922
-0.0926864
-0.0740018
-0.0505936
-0.0279754
-0.00993022
0.00324579
0.0134893
0.0222478
0.0292191
0.0333325
0.0342064
0.0326075
0.0298159
0.0265581
0.02275
0.0184082
0.0144402
0.0122464
0.0128133
0.0163569
0.0224035
0.0298473
0.0374903
0.0450093
0.0527957
0.0606677
0.0676168
0.0730754
0.0775172
0.0813616
0.084167
0.085616
0.0864646
0.0876653
0.0891256
0.0900979
0.0903912
0.0903912
0.0900981
0.089126
0.0876658
0.0864648
0.0856157
0.0841661
0.0813602
0.0775157
0.073074
0.0676159
0.0606675
0.0527958
0.0450099
0.0374913
0.0298492
0.0224063
0.0163603
0.012817
0.0122499
0.0144431
0.0184104
0.0227513
0.0265587
0.0298158
0.0326068
0.0342054
0.0333315
0.0292185
0.0222476
0.0134893
0.00324599
-0.00992991
-0.027975
-0.0505932
-0.0740014
-0.0926861
-0.102922
-0.105029
-0.102426
-0.0984848
-0.0939348
-0.0868077
-0.0747451
-0.0576175
-0.0381486
-0.0204463
-0.00786341
-0.00148696
9.1614e-05
-0.000103548
-0.00214345
-0.00915169
-0.0225579
-0.0412309
-0.0616726
-0.0795312
-0.0918301
-0.0984847
-0.101689
-0.103369
-0.102922
-0.0972339
-0.0832328
-0.0609663
-0.0344824
-0.00958875
0.0096621
0.0228747
0.0321917
0.0395909
0.0454116
0.0490276
0.0501922
0.0495508
0.0480647
0.0461094
0.043394
0.0397556
0.0358388
0.0328198
0.0316305
0.0325935
0.0354745
0.0395541
0.0440935
0.0490359
0.0547698
0.0610837
0.0669791
0.0717482
0.0755432
0.0784929
0.0800736
0.0800122
0.0791336
0.0785838
0.0785909
0.0786414
0.0785394
0.0785394
0.0786417
0.0785913
0.0785841
0.0791334
0.0800112
0.0800719
0.0784904
0.0755403
0.0717453
0.0669769
0.0610823
0.054769
0.0490355
0.0440936
0.0395549
0.0354761
0.0325959
0.0316334
0.0328228
0.0358413
0.0397576
0.0433955
0.0461106
0.0480654
0.0495511
0.0501922
0.0490276
0.0454118
0.0395914
0.0321924
0.0228753
0.00966265
-0.00958828
-0.034482
-0.060966
-0.0832326
-0.0972339
-0.102922
-0.10337
-0.101689
-0.0984848
-0.0918302
-0.0795312
-0.0616726
-0.0412308
-0.0225578
-0.00915159
-0.00214339
-0.000103538
-0.000600294
-0.00365654
-0.0117094
-0.0261309
-0.0457096
-0.0668318
-0.0849735
-0.0969487
-0.102426
-0.103369
-0.10165
-0.0968917
-0.0864264
-0.0677329
-0.0413573
-0.0116558
0.0153898
0.0355595
0.0483659
0.0561258
0.0613589
0.0651038
0.0672218
0.0676126
0.0668311
0.065614
0.0641161
0.0619176
0.0586407
0.0545506
0.0505027
0.0473484
0.0455375
0.0451081
0.0457651
0.0472534
0.0497732
0.053689
0.0587549
0.0639771
0.0684663
0.0720104
0.0744736
0.075325
0.0743499
0.0723366
0.0704702
0.0692234
0.06837
0.067833
0.067833
0.0683702
0.0692236
0.0704699
0.0723357
0.0743481
0.0753224
0.0744703
0.0720066
0.0684626
0.0639741
0.0587529
0.053688
0.0497728
0.0472535
0.0457656
0.0451092
0.0455392
0.0473506
0.050505
0.0545527
0.0586423
0.0619189
0.0641171
0.0656148
0.0668316
0.0676128
0.067222
0.0651041
0.0613595
0.0561264
0.0483664
0.0355598
0.01539
-0.0116556
-0.0413571
-0.0677328
-0.0864265
-0.0968921
-0.101651
-0.10337
-0.102426
-0.0969487
-0.0849734
-0.0668317
-0.0457095
-0.0261308
-0.0117092
-0.00365636
-0.000600227
-0.00131884
-0.0057819
-0.0151245
-0.0306043
-0.0509144
-0.0723575
-0.0902994
-0.101386
-0.105029
-0.102922
-0.0968917
-0.0868786
-0.0708126
-0.0468683
-0.0161716
0.0166327
0.0455077
0.0662118
0.07824
0.0840618
0.0866795
0.0877975
0.0877727
0.0866776
0.0850198
0.0833934
0.0818316
0.0798227
0.0767192
0.0723175
0.0670991
0.061825
0.05706
0.0530963
0.0500773
0.0482784
0.0482045
0.0502279
0.0540852
0.0587903
0.0632669
0.0669534
0.0695124
0.0704692
0.0696411
0.0676255
0.0654272
0.0636042
0.0622001
0.0613541
0.0613541
0.0621999
0.0636037
0.0654261
0.0676235
0.0696384
0.0704659
0.0695088
0.0669496
0.0632633
0.0587875
0.0540836
0.0502275
0.048205
0.0482793
0.0500784
0.0530975
0.0570612
0.0618264
0.0671005
0.0723186
0.0767199
0.0798231
0.0818318
0.0833934
0.0850197
0.0866775
0.0877726
0.0877975
0.0866796
0.0840619
0.0782401
0.0662118
0.0455078
0.0166328
-0.0161714
-0.0468682
-0.0708128
-0.086879
-0.0968921
-0.102922
-0.105029
-0.101386
-0.0902993
-0.0723574
-0.0509145
-0.0306043
-0.0151243
-0.00578169
-0.00131876
-0.00191448
-0.00750086
-0.0177494
-0.0337736
-0.0541743
-0.0752103
-0.0922084
-0.101717
-0.102922
-0.0972339
-0.0864264
-0.0708126
-0.0490383
-0.0200786
0.0143407
0.0493697
0.0790899
0.0994405
0.110018
0.113421
0.113019
0.111097
0.108525
0.105611
0.10285
0.100691
0.0990519
0.0973192
0.0945487
0.0900311
0.0838362
0.0765834
0.0688818
0.061225
0.0542105
0.0487124
0.0456118
0.0453345
0.0476227
0.0515322
0.0558733
0.0598341
0.0629597
0.0648506
0.0652813
0.0645032
0.0631382
0.0616502
0.06027
0.0593747
0.0593745
0.0602694
0.061649
0.0631362
0.0645003
0.0652779
0.0648471
0.0629564
0.059831
0.0558708
0.0515305
0.0476222
0.0453353
0.0456135
0.0487145
0.0542124
0.0612263
0.0688825
0.0765836
0.0838361
0.0900307
0.094548
0.0973183
0.0990509
0.10069
0.102849
0.105611
0.108524
0.111097
0.113019
0.113421
0.110018
0.0994405
0.0790902
0.0493702
0.0143414
-0.0200782
-0.0490382
-0.0708128
-0.0864265
-0.0972339
-0.102922
-0.101717
-0.0922084
-0.0752105
-0.0541745
-0.0337737
-0.0177493
-0.00750071
-0.00191442
-0.00200632
-0.00770425
-0.0178269
-0.0333241
-0.0527029
-0.0722242
-0.0872723
-0.0944129
-0.0926864
-0.0832328
-0.0677329
-0.0468683
-0.0200786
0.0127727
0.049379
0.0848479
0.113634
0.132102
0.140076
0.140245
0.136208
0.130736
0.125245
0.120375
0.116622
0.114221
0.112892
0.111892
0.109998
0.106004
0.0995227
0.0909319
0.0807866
0.0697321
0.0588274
0.0495632
0.0431989
0.0402153
0.0403826
0.0428854
0.0465834
0.0505817
0.0543879
0.0576403
0.0599769
0.0612149
0.061499
0.0610781
0.0602561
0.0595844
0.0595841
0.0602551
0.0610763
0.0614965
0.0612117
0.0599734
0.0576372
0.0543854
0.0505801
0.0465826
0.0428855
0.0403836
0.0402172
0.0432014
0.049566
0.0588298
0.0697335
0.0807866
0.0909308
0.0995208
0.106002
0.109995
0.11189
0.11289
0.114219
0.11662
0.120374
0.125244
0.130736
0.136208
0.140245
0.140076
0.132103
0.113635
0.084849
0.0493802
0.0127736
-0.0200782
-0.0468682
-0.0677328
-0.0832326
-0.0926861
-0.0944128
-0.0872726
-0.0722247
-0.0527034
-0.0333244
-0.0178269
-0.00770415
-0.00200628
-0.00146742
-0.00603368
-0.0148202
-0.0285978
-0.0457719
-0.0626545
-0.0747979
-0.0789141
-0.0740018
-0.0609663
-0.0413573
-0.0161716
0.0143407
0.049379
0.0861055
0.119787
0.145527
0.16034
0.164369
0.160348
0.151987
0.142451
0.133708
0.126794
0.122213
0.119916
0.119354
0.11965
0.119352
0.116801
0.111102
0.10229
0.0907982
0.0774044
0.0635887
0.0513417
0.0421601
0.0365033
0.034193
0.034675
0.0370693
0.0405798
0.0447258
0.049116
0.0531915
0.0563699
0.0583795
0.0592382
0.0592193
0.0589281
0.0589277
0.0592181
0.0592364
0.058377
0.0563672
0.0531889
0.049114
0.0447248
0.0405798
0.0370702
0.0346766
0.0341952
0.0365058
0.0421628
0.0513443
0.0635906
0.0774052
0.0907973
0.102288
0.111099
0.116798
0.119348
0.119647
0.119352
0.119914
0.122212
0.126793
0.133707
0.142451
0.151988
0.160348
0.164369
0.160341
0.145528
0.119789
0.0861072
0.0493802
0.0143414
-0.0161714
-0.041357
-0.0609659
-0.0740014
-0.078914
-0.0747983
-0.0626554
-0.0457727
-0.0285983
-0.0148203
-0.00603354
-0.00146734
-0.000525989
-0.00316819
-0.00985189
-0.0211639
-0.0354072
-0.0489896
-0.0577262
-0.0585807
-0.0505936
-0.0344824
-0.0116558
0.0166327
0.0493697
0.0848479
0.119787
0.14979
0.170816
0.180667
0.179827
0.17102
0.15798
0.14417
0.132064
0.12308
0.117726
0.115657
0.116072
0.117991
0.119813
0.119492
0.115629
0.107883
0.0965607
0.0825628
0.0676612
0.0540785
0.0432813
0.0355874
0.030905
0.0290769
0.0296616
0.0320873
0.035894
0.0406057
0.0454898
0.0497256
0.0528156
0.0546189
0.0553024
0.0553887
0.0553883
0.0553014
0.0546173
0.0528138
0.0497239
0.0454886
0.0406052
0.0358944
0.0320888
0.0296639
0.0290796
0.0309079
0.0355899
0.0432834
0.05408
0.067662
0.0825625
0.0965591
0.10788
0.115625
0.119488
0.119809
0.117989
0.11607
0.115655
0.117725
0.12308
0.132064
0.14417
0.15798
0.171021
0.179827
0.180668
0.170817
0.149792
0.119789
0.084849
0.0493702
0.0166329
-0.0116556
-0.034482
-0.0505932
-0.0585807
-0.0577268
-0.0489907
-0.0354083
-0.0211645
-0.00985194
-0.00316795
-0.00052586
0.00044552
-0.00021375
-0.00474339
-0.0135536
-0.0248469
-0.035149
-0.0406033
-0.0385005
-0.0279754
-0.00958875
0.0153898
0.0455077
0.0790899
0.113634
0.145527
0.170816
0.186404
0.190927
0.185179
0.171787
0.1544
0.136677
0.121489
0.110574
0.104446
0.102537
0.103859
0.107363
0.111356
0.11353
0.112101
0.10644
0.0967804
0.0840946
0.0702132
0.0572335
0.046308
0.0375301
0.0309565
0.0269246
0.0255125
0.0264039
0.0291364
0.0331421
0.0376209
0.0417415
0.0450019
0.0471906
0.0483117
0.0486854
0.0486851
0.0483107
0.0471893
0.0450008
0.0417409
0.0376211
0.033143
0.0291381
0.0264064
0.0255155
0.0269278
0.0309595
0.0375324
0.0463093
0.0572338
0.0702127
0.0840933
0.0967783
0.106437
0.112098
0.113527
0.111353
0.107361
0.103858
0.102536
0.104446
0.110574
0.121489
0.136677
0.1544
0.171787
0.185179
0.190928
0.186405
0.170817
0.145528
0.113635
0.0790903
0.0455078
0.0153901
-0.00958826
-0.027975
-0.0385007
-0.0406042
-0.0351504
-0.0248482
-0.0135543
-0.00474345
-0.000213476
0.000445673
0.00123575
0.0021846
-0.000602987
-0.0073727
-0.0162103
-0.0237461
-0.0264864
-0.0221198
-0.00993022
0.0096621
0.0355595
0.0662118
0.0994405
0.132102
0.16034
0.180667
0.190927
0.190593
0.180733
0.163766
0.14309
0.122392
0.104812
0.0923529
0.0855858
0.0838173
0.0859217
0.0907466
0.0965248
0.100858
0.101833
0.0987316
0.091774
0.0818745
0.0706243
0.0596688
0.0496742
0.0405343
0.0325463
0.0265808
0.0232151
0.0223487
0.0234945
0.0260383
0.0292553
0.0324918
0.0353744
0.0376403
0.0390666
0.0396883
0.0396879
0.0390657
0.0376391
0.0353736
0.0324918
0.0292563
0.0260401
0.0234969
0.0223517
0.0232184
0.0265841
0.0325492
0.0405363
0.049675
0.0596684
0.0706229
0.0818725
0.0917717
0.0987291
0.10183
0.100855
0.0965227
0.0907452
0.0859213
0.0838177
0.0855865
0.0923536
0.104812
0.122392
0.14309
0.163766
0.180733
0.190593
0.190928
0.180668
0.160341
0.132103
0.0994406
0.0662118
0.0355598
0.00966267
-0.00992989
-0.0221202
-0.0264876
-0.0237478
-0.0162119
-0.00737359
-0.000603157
0.00218482
0.00123589
0.00188372
0.00411926
0.0026605
-0.00258153
-0.00953959
-0.0149065
-0.0155618
-0.00966975
0.00324579
0.0228747
0.0483659
0.07824
0.110018
0.140076
0.164369
0.179827
0.185179
0.180733
0.167841
0.148605
0.12597
0.103449
0.0843453
0.0709271
0.0638911
0.062481
0.0653964
0.0712825
0.0783015
0.0841713
0.0871513
0.0866334
0.0828167
0.0763602
0.0683459
0.0597971
0.0509191
0.0415479
0.0323092
0.0245737
0.0193341
0.0166553
0.0160441
0.0169287
0.0187752
0.0211743
0.0238525
0.0264069
0.0283085
0.0292687
0.0292683
0.0283075
0.0264056
0.0238516
0.0211744
0.0187764
0.0169308
0.0160469
0.0166586
0.0193377
0.0245771
0.0323121
0.0415499
0.0509199
0.0597965
0.0683442
0.0763579
0.0828144
0.0866312
0.0871493
0.0841697
0.0783002
0.0712817
0.0653961
0.0624812
0.0638917
0.070928
0.0843461
0.103449
0.125969
0.148604
0.16784
0.180733
0.185179
0.179827
0.164369
0.140076
0.110018
0.0782401
0.0483665
0.0228754
0.00324601
-0.00967044
-0.0155635
-0.0149087
-0.00954156
-0.00258273
0.00266015
0.00411937
0.00188382
0.0025136
0.00595508
0.00564081
0.00163815
-0.00379791
-0.00738331
-0.00636521
0.000550565
0.0134893
0.0321917
0.0561258
0.0840618
0.113421
0.140245
0.160348
0.17102
0.171787
0.163766
0.148605
0.128039
0.104411
0.080929
0.0610215
0.0472614
0.0405015
0.0398788
0.043802
0.0506188
0.0584711
0.0654017
0.0700638
0.0720297
0.0713583
0.0682427
0.0631153
0.0564279
0.0481378
0.0382149
0.0276366
0.0181597
0.0110824
0.00661928
0.00434473
0.00383519
0.00480454
0.00702569
0.010167
0.013537
0.0162426
0.0176903
0.01769
0.0162417
0.0135358
0.0101661
0.00702566
0.00480566
0.00383736
0.00434775
0.00662287
0.0110862
0.0181632
0.0276395
0.0382168
0.0481385
0.0564274
0.0631136
0.0682403
0.0713557
0.0720274
0.070062
0.0654005
0.0584703
0.0506183
0.0438016
0.0398787
0.0405019
0.0472624
0.0610226
0.0809297
0.104411
0.128039
0.148604
0.163766
0.171787
0.171021
0.160348
0.140245
0.113421
0.0840619
0.0561264
0.0321924
0.0134893
0.00054949
-0.00636745
-0.00738612
-0.00380043
0.00163657
0.00564025
0.00595511
0.00251368
0.00307526
0.00756812
0.00820999
0.00524348
0.0011366
-0.000830831
0.00173058
0.0095306
0.0222478
0.0395909
0.0613589
0.0866795
0.113019
0.136208
0.151987
0.15798
0.1544
0.14309
0.12597
0.104411
0.0801443
0.0560702
0.0357751
0.022156
0.01617
0.0167156
0.0217786
0.0293954
0.0378201
0.0455955
0.0518407
0.0562191
0.0584693
0.0581835
0.0551705
0.0495271
0.0412399
0.0305421
0.01867
0.00757699
-0.00124863
-0.00742458
-0.0112098
-0.012788
-0.0121934
-0.00958644
-0.00552226
-0.0010735
0.00253165
0.00448325
0.0044831
0.00253123
-0.00107406
-0.00552259
-0.00958605
-0.012192
-0.0127855
-0.0112065
-0.00742073
-0.00124469
0.00758046
0.0186726
0.0305436
0.0412402
0.0495263
0.0551687
0.058181
0.0584665
0.0562165
0.0518386
0.0455942
0.0378195
0.0293951
0.0217783
0.0167154
0.0161703
0.022157
0.0357766
0.0560715
0.0801449
0.104411
0.125969
0.14309
0.1544
0.15798
0.151988
0.136208
0.113019
0.0866796
0.0613595
0.0395914
0.0222476
0.00952908
0.00172779
-0.000834204
0.00113363
0.00524158
0.00820923
0.00756807
0.00307533
0.00331219
0.00823
0.00927197
0.00690613
0.00385104
0.00339919
0.00757301
0.0164627
0.0292191
0.0454116
0.0651038
0.0877975
0.111097
0.130736
0.142451
0.14417
0.136677
0.122392
0.103449
0.080929
0.0560702
0.0315459
0.0110972
-0.00212324
-0.00716288
-0.00547406
0.000466645
0.00848662
0.0171333
0.0255522
0.0332663
0.0398677
0.0446514
0.0466221
0.0451302
0.0401659
0.0319279
0.0208836
0.00830834
-0.0038869
-0.0141409
-0.0218865
-0.0271402
-0.0297937
-0.029646
-0.0268664
-0.0222819
-0.017278
-0.0132535
-0.0110788
-0.0110786
-0.013253
-0.0172772
-0.0222808
-0.0268647
-0.0296436
-0.0297907
-0.0271366
-0.0218826
-0.0141373
-0.00388407
0.00830998
0.020884
0.0319272
0.0401644
0.045128
0.0466194
0.0446484
0.0398648
0.033264
0.0255509
0.0171329
0.00848672
0.000466848
-0.00547383
-0.00716232
-0.00212208
0.0110989
0.0315476
0.0560715
0.0809297
0.103449
0.122392
0.136677
0.14417
0.142451
0.130736
0.111097
0.0877975
0.0651041
0.0454118
0.0292185
0.0164607
0.00756981
0.00339549
0.00384782
0.00690403
0.00927105
0.00822984
0.00331222
0.00297795
0.00722617
0.00770503
0.00518052
0.0026893
0.00358259
0.0095196
0.0199269
0.0333325
0.0490276
0.0672218
0.0877727
0.108525
0.125245
0.133708
0.132064
0.121489
0.104812
0.0843453
0.0610215
0.0357751
0.0110972
-0.0092508
-0.0220513
-0.0264609
-0.0242556
-0.0182405
-0.0106004
-0.00233977
0.00628748
0.0150674
0.0233923
0.0301298
0.0338705
0.0337433
0.0298064
0.0224767
0.012262
0.000182786
-0.0121342
-0.0231723
-0.0322012
-0.0389844
-0.0431204
-0.0441873
-0.0423527
-0.0386016
-0.0343857
-0.0309913
-0.0291559
-0.0291552
-0.0309895
-0.034383
-0.0385982
-0.042349
-0.0441834
-0.0431165
-0.0389806
-0.0321978
-0.0231696
-0.0121326
0.000182945
0.0122608
0.0224746
0.0298038
0.0337406
0.0338679
0.0301273
0.0233899
0.0150655
0.00628645
-0.00233988
-0.0105999
-0.0182397
-0.0242547
-0.0264598
-0.02205
-0.00924917
0.0110989
0.0357766
0.0610226
0.0843461
0.104812
0.121489
0.132064
0.133707
0.125244
0.108524
0.0877726
0.067222
0.0490276
0.0333316
0.0199246
0.00951626
0.00357888
0.0026861
0.00517837
0.007704
0.0072259
0.00297795
0.00201058
0.00437249
0.00320482
-0.000355896
-0.00287275
-0.000861036
0.00700029
0.0194268
0.0342064
0.0501922
0.0676126
0.0866776
0.105611
0.120375
0.126794
0.12308
0.110574
0.0923529
0.0709271
0.0472614
0.022156
-0.00212324
-0.0220513
-0.0346051
-0.0390925
-0.0374209
-0.0324462
-0.026153
-0.0190402
-0.0108657
-0.00172934
0.0075254
0.015481
0.0205684
0.0219193
0.0197256
0.0144943
0.00651962
-0.00368812
-0.0149614
-0.0259345
-0.0357963
-0.0441259
-0.0502764
-0.0536123
-0.0542196
-0.0530211
-0.0512015
-0.0496273
-0.0487437
-0.0487426
-0.0496242
-0.0511969
-0.0530156
-0.0542139
-0.0536069
-0.0502719
-0.0441223
-0.0357939
-0.0259333
-0.0149615
-0.00368959
0.006517
0.014491
0.0197221
0.0219163
0.020566
0.0154792
0.00752413
-0.00173013
-0.0108659
-0.0190399
-0.0261522
-0.032445
-0.0374195
-0.0390911
-0.0346036
-0.02205
-0.00212208
0.022157
0.0472623
0.0709279
0.0923535
0.110574
0.12308
0.126793
0.120374
0.105611
0.0866775
0.0676128
0.0501922
0.0342054
0.0194246
0.00699709
-0.000864514
-0.00287573
-0.000357908
0.00320381
0.00437218
0.00201055
0.000550577
8.02383e-05
-0.00357489
-0.00885544
-0.0118663
-0.00892604
0.000985789
0.0158473
0.0326075
0.0495508
0.0668311
0.0850198
0.10285
0.116622
0.122213
0.117726
0.104446
0.0855858
0.0638911
0.0405015
0.01617
-0.00716288
-0.0264609
-0.0390925
-0.044466
-0.0443425
-0.041336
-0.0371036
-0.0317113
-0.0245898
-0.0158271
-0.00644613
0.00203204
0.00809262
0.0110043
0.0110702
0.008734
0.00390137
-0.00353001
-0.0128939
-0.0230442
-0.0332127
-0.0429199
-0.0513514
-0.0576684
-0.0617877
-0.0643596
-0.0660242
-0.0670204
-0.0674477
-0.0674464
-0.0670166
-0.0660183
-0.0643527
-0.0617807
-0.0576621
-0.0513466
-0.0429167
-0.0332113
-0.0230445
-0.0128957
-0.00353282
0.00389785
0.00873017
0.0110666
0.0110014
0.00809066
0.00203109
-0.00644626
-0.0158267
-0.0245892
-0.0317106
-0.0371028
-0.041335
-0.0443412
-0.0444645
-0.0390911
-0.0264598
-0.00716232
0.0161703
0.0405019
0.0638917
0.0855864
0.104446
0.117725
0.122212
0.11662
0.102849
0.0850197
0.0668316
0.0495511
0.0326068
0.0158454
0.000982983
-0.00892908
-0.0118689
-0.00885715
-0.00357573
7.99702e-05
0.000550544
-0.00112063
-0.00482418
-0.011313
-0.0185914
-0.0223049
-0.0185626
-0.00661049
0.010817
0.0298159
0.0480647
0.065614
0.0833934
0.100691
0.114221
0.119916
0.115657
0.102537
0.0838173
0.062481
0.0398788
0.0167156
-0.00547406
-0.0242556
-0.0374209
-0.0443425
-0.0463794
-0.0457016
-0.043635
-0.0399935
-0.034082
-0.0260371
-0.016973
-0.00838227
-0.00162736
0.00272674
0.00503818
0.0055973
0.00389837
-0.00068929
-0.00789893
-0.0168099
-0.0268149
-0.0375072
-0.0479892
-0.0572491
-0.0650046
-0.0715346
-0.0768121
-0.0803984
-0.0821053
-0.0821039
-0.0803943
-0.076806
-0.0715272
-0.0649972
-0.0572427
-0.0479845
-0.0375047
-0.0268146
-0.0168115
-0.00790185
-0.00069289
0.00389457
0.00559366
0.00503501
0.00272432
-0.00162881
-0.00838266
-0.0169725
-0.026036
-0.0340807
-0.0399925
-0.0436343
-0.0457009
-0.0463785
-0.0443412
-0.0374195
-0.0242547
-0.00547383
0.0167154
0.0398787
0.0624812
0.0838176
0.102536
0.115655
0.119914
0.114219
0.10069
0.0833934
0.0656148
0.0480654
0.0298158
0.0108158
-0.00661256
-0.0185649
-0.0223069
-0.0185927
-0.0113137
-0.00482437
-0.00112066
-0.00271376
-0.00949647
-0.0186809
-0.0278725
-0.0323153
-0.0279414
-0.014223
0.00549459
0.0265581
0.0461094
0.0641161
0.0818316
0.0990519
0.112892
0.119354
0.116072
0.103859
0.0859217
0.0653964
0.043802
0.0217786
0.000466645
-0.0182405
-0.0324462
-0.041336
-0.0457016
-0.047169
-0.0467971
-0.0443673
-0.039276
-0.0317786
-0.0230292
-0.0144409
-0.00721763
-0.00177853
0.00225922
0.00503498
0.00573681
0.00340941
-0.00190145
-0.00946738
-0.018931
-0.0300635
-0.0419558
-0.0534725
-0.0641679
-0.0739718
-0.082219
-0.0878646
-0.0905438
-0.0905426
-0.0878608
-0.0822133
-0.0739649
-0.0641609
-0.0534665
-0.0419515
-0.0300615
-0.0189314
-0.00946972
-0.001905
0.00340547
0.00573311
0.00503184
0.00225675
-0.0017803
-0.00721865
-0.014441
-0.0230285
-0.0317771
-0.0392744
-0.044366
-0.0467963
-0.0471685
-0.0457009
-0.041335
-0.032445
-0.0182396
0.000466851
0.0217783
0.0438016
0.0653961
0.0859213
0.103858
0.11607
0.119352
0.11289
0.0990509
0.0818317
0.0641171
0.0461106
0.0265587
0.00549433
-0.014224
-0.0279427
-0.0323163
-0.0278732
-0.0186812
-0.00949658
-0.00271377
-0.00403719
-0.0133849
-0.0248407
-0.0357004
-0.0408972
-0.0362236
-0.0213018
9.20629e-05
0.02275
0.043394
0.0619176
0.0798227
0.0973192
0.111892
0.11965
0.117991
0.107363
0.0907466
0.0712825
0.0506188
0.0293954
0.00848662
-0.0106004
-0.026153
-0.0371036
-0.043635
-0.0467971
-0.0474348
-0.045477
-0.0406134
-0.0333113
-0.0247578
-0.0162675
-0.00888892
-0.00289682
0.00213365
0.00625316
0.00849078
0.00776943
0.00405761
-0.00209895
-0.0106683
-0.021672
-0.0342326
-0.0471305
-0.0598103
-0.0719313
-0.0822943
-0.0893615
-0.0926752
-0.0926742
-0.0893583
-0.0822895
-0.0719255
-0.0598045
-0.0471254
-0.0342291
-0.0216705
-0.010669
-0.00210152
0.00405388
0.00776543
0.00848724
0.00625044
0.00213178
-0.002898
-0.00888953
-0.0162675
-0.0247571
-0.0333099
-0.0406117
-0.0454753
-0.0474335
-0.0467963
-0.0436343
-0.0371028
-0.0261521
-0.0105999
0.00848672
0.0293951
0.0506183
0.0712817
0.0907452
0.107361
0.117989
0.119647
0.11189
0.0973183
0.0798231
0.0619189
0.0433955
0.0227513
9.29886e-05
-0.0213013
-0.0362234
-0.0408972
-0.0357004
-0.0248407
-0.013385
-0.00403721
-0.00493999
-0.0160584
-0.0291504
-0.0413352
-0.047337
-0.0428211
-0.0274444
-0.00518894
0.0184082
0.0397556
0.0586407
0.0767192
0.0945487
0.109998
0.119352
0.119813
0.111356
0.0965248
0.0783015
0.0584711
0.0378201