/*--------------------------------*- C++ -*----------------------------------*\
  =========                 |
  \\      /  F ield         | OpenFOAM: The Open Source CFD Toolbox
   \\    /   O peration     | Website:  https://openfoam.org
    \\  /    A nd           | Version:  10
     \\/     M anipulation  |
\*---------------------------------------------------------------------------*/
FoamFile
{
    format      ascii;
    class       volScalarField;
    location    "96";
    object      h;
}
// * * * * * * * * * * * * * * * * * * * * * * * * * * * * * * * * * * * * * //

dimensions      [0 1 0 0 0 0 0];

internalField   nonuniform List<scalar> 
10000
(
4.42508e-05
0.000131126
0.000208449
0.00027403
0.000355566
0.000499488
0.000722055
0.000995922
0.00129303
0.00162081
0.00201204
0.00248264
0.00298929
0.00341227
0.00359719
0.00344177
0.00294716
0.00216916
0.00112309
-0.000242614
-0.00197924
-0.00405108
-0.00628117
-0.00834527
-0.0098584
-0.0105347
-0.0103058
-0.00932356
-0.00786994
-0.00623307
-0.00459818
-0.00299577
-0.00135169
0.000381503
0.00211536
0.00362986
0.00468952
0.00519517
0.00525056
0.00506196
0.00474448
0.00421552
0.00325903
0.00168401
-0.000532308
-0.00318846
-0.00592082
-0.00833652
-0.0101192
-0.0110617
-0.0110618
-0.0101195
-0.00833704
-0.00592142
-0.00318906
-0.000532838
0.00168359
0.00325876
0.00421545
0.00474465
0.00506243
0.00525132
0.00519621
0.00469077
0.00363123
0.00211672
0.000382703
-0.0013508
-0.00299531
-0.00459823
-0.00623365
-0.00787101
-0.00932502
-0.0103075
-0.0105365
-0.00986008
-0.00834669
-0.00628219
-0.00405163
-0.00197933
-0.000242307
0.0011237
0.00216996
0.00294806
0.00344268
0.00359804
0.003413
0.00298986
0.00248304
0.00201228
0.00162091
0.00129304
0.000995872
0.000721962
0.000499372
0.000355446
0.000273926
0.000208371
0.000131077
4.42338e-05
0.000131126
0.000395609
0.000648391
0.000881945
0.00116852
0.00163463
0.00232165
0.0031459
0.0040222
0.00496796
0.00607392
0.00738527
0.0087829
0.00993329
0.0104031
0.00990165
0.00842409
0.00611447
0.00300315
-0.0010578
-0.00619931
-0.0122956
-0.0188197
-0.0248303
-0.0292194
-0.0311691
-0.0304884
-0.0276189
-0.0233777
-0.0186047
-0.0138448
-0.00918786
-0.00440711
0.000651758
0.00574106
0.0102199
0.0133962
0.0149716
0.0152373
0.0147842
0.0139376
0.0124418
0.00964714
0.00498331
-0.00161328
-0.00953805
-0.0177052
-0.0249378
-0.0302813
-0.0331077
-0.033108
-0.0302822
-0.0249392
-0.0177068
-0.00953967
-0.00161474
0.00498215
0.0096464
0.0124416
0.0139381
0.0147856
0.0152396
0.0149746
0.0133997
0.0102238
0.00574488
0.000655103
-0.00440465
-0.00918662
-0.013845
-0.0186063
-0.0233807
-0.027623
-0.0304932
-0.0311742
-0.0292242
-0.0248344
-0.0188226
-0.0122972
-0.00619964
-0.001057
0.00300482
0.00611672
0.00842664
0.00990427
0.0104056
0.0099354
0.00878457
0.00738645
0.00607464
0.00496832
0.00402228
0.00314579
0.00232141
0.00163431
0.00116819
0.00088165
0.000648167
0.000395468
0.000131077
0.000208449
0.000648391
0.00111412
0.00158818
0.00215885
0.00300159
0.00416881
0.0055228
0.00692359
0.00838678
0.0100383
0.0119415
0.0139263
0.0155125
0.0160685
0.0151597
0.0127547
0.00902475
0.00397439
-0.00262156
-0.0109128
-0.0206375
-0.0309371
-0.0403496
-0.0471806
-0.0501927
-0.0491096
-0.0446188
-0.0379856
-0.0305259
-0.0231078
-0.0158698
-0.00841795
-0.000454963
0.00766516
0.0149362
0.0202469
0.0230914
0.0238839
0.0235121
0.0224483
0.0202378
0.0157973
0.00819248
-0.0026609
-0.0157492
-0.0292752
-0.0412841
-0.0501719
-0.0548763
-0.0548768
-0.0501731
-0.041286
-0.0292774
-0.0157514
-0.00266292
0.00819085
0.0157962
0.0202376
0.0224492
0.0235143
0.0238873
0.023096
0.0202523
0.014942
0.00767084
-0.000450068
-0.00841442
-0.0158681
-0.0231082
-0.0305285
-0.0379902
-0.044625
-0.0491169
-0.0502004
-0.0471879
-0.0403559
-0.0309418
-0.0206402
-0.0109136
-0.00262057
0.00397675
0.00902805
0.0127586
0.0151637
0.0160723
0.0155159
0.013929
0.0119435
0.0100396
0.00838747
0.00692384
0.00552273
0.0041685
0.00300115
0.00215836
0.00158773
0.00111377
0.000648167
0.000208371
0.00027403
0.000881945
0.00158818
0.00235391
0.00324738
0.00445936
0.00604734
0.00783802
0.00965117
0.0114884
0.0134764
0.0156718
0.0178774
0.0195504
0.0199697
0.0186209
0.015424
0.0105019
0.00378554
-0.00499804
-0.0159375
-0.0285832
-0.0417922
-0.0537397
-0.0623568
-0.0661525
-0.0648115
-0.0591896
-0.0508597
-0.0414884
-0.0322001
-0.0231596
-0.0137836
-0.00357884
0.00707631
0.0168958
0.0244007
0.0288543
0.0306864
0.0309393
0.0301238
0.027546
0.0217023
0.0113374
-0.00360872
-0.0216964
-0.0404315
-0.0571008
-0.0694566
-0.0760008
-0.0760012
-0.0694579
-0.0571026
-0.0404337
-0.0216986
-0.00361081
0.0113358
0.0217012
0.0275459
0.0301251
0.0309421
0.0306908
0.0288601
0.0244074
0.0169029
0.00708308
-0.00357311
-0.0137796
-0.0231578
-0.0322008
-0.0414916
-0.0508653
-0.0591971
-0.0648203
-0.0661618
-0.0623658
-0.0537476
-0.0417982
-0.0285869
-0.0159389
-0.00499729
0.00378805
0.0105057
0.0154286
0.0186259
0.0199746
0.0195548
0.017881
0.0156746
0.0134783
0.0114896
0.00965174
0.00783811
0.00604708
0.00445888
0.00324681
0.00235336
0.00158773
0.00088165
0.000273925
0.000355566
0.00116852
0.00215885
0.00324738
0.00444889
0.00594467
0.00780523
0.00985668
0.0119061
0.0139339
0.0160298
0.0182102
0.0202643
0.0216674
0.0217202
0.0199001
0.0160676
0.0102346
0.0022228
-0.00825052
-0.0211344
-0.0357564
-0.0507681
-0.0641863
-0.073823
-0.0781212
-0.0767645
-0.0706689
-0.061535
-0.0512199
-0.0410161
-0.0310904
-0.02066
-0.00899029
0.00360626
0.0156669
0.0254061
0.0318278
0.0352542
0.0367142
0.0366288
0.0340247
0.0270201
0.0141184
-0.00465004
-0.0274009
-0.0509761
-0.0719629
-0.0875257
-0.095769
-0.0957693
-0.0875266
-0.0719643
-0.0509778
-0.0274026
-0.0046516
0.0141172
0.0270195
0.0340251
0.0366304
0.0367175
0.035259
0.0318341
0.0254133
0.0156744
0.00361325
-0.00898449
-0.020656
-0.0310887
-0.0410169
-0.0512234
-0.0615408
-0.0706767
-0.0767737
-0.078131
-0.0738327
-0.064195
-0.050775
-0.0357611
-0.0211367
-0.00825045
0.00222488
0.0102383
0.0160724
0.0199055
0.0217257
0.0216726
0.0202688
0.0182138
0.0160325
0.0139357
0.0119071
0.00985708
0.00780515
0.00594427
0.00444834
0.00324681
0.00215836
0.00116819
0.000355445
0.000499488
0.00163463
0.00300159
0.00445936
0.00594467
0.00761372
0.00956232
0.0116522
0.0137074
0.0156865
0.0176152
0.0194439
0.0209608
0.0217284
0.0211667
0.0188132
0.0144706
0.00800167
-0.0008983
-0.0124862
-0.026516
-0.0420856
-0.0577423
-0.0715592
-0.0814819
-0.0860596
-0.0849908
-0.0791231
-0.0700905
-0.05977
-0.0495297
-0.0395302
-0.0288154
-0.0164055
-0.00247783
0.01143
0.023297
0.0318593
0.0372345
0.0402975
0.0412691
0.0388814
0.0309498
0.0158439
-0.00624567
-0.032994
-0.0606547
-0.0852364
-0.103443
-0.11308
-0.11308
-0.103444
-0.0852371
-0.0606555
-0.0329947
-0.00624614
0.0158437
0.0309501
0.0388824
0.0412712
0.0403009
0.0372393
0.0318653
0.0233037
0.0114369
-0.00247153
-0.0164004
-0.028812
-0.0395289
-0.0495308
-0.0597733
-0.070096
-0.0791304
-0.0849995
-0.086069
-0.0814913
-0.0715679
-0.0577496
-0.042091
-0.0265192
-0.0124872
-0.000897186
0.00800456
0.0144748
0.0188184
0.0211723
0.021734
0.020966
0.0194483
0.0176187
0.015689
0.0137091
0.0116531
0.00956257
0.00761355
0.00594427
0.00445888
0.00300115
0.00163431
0.000499371
0.000722055
0.00232165
0.00416881
0.00604734
0.00780523
0.00956232
0.0114399
0.0133508
0.0151512
0.016783
0.0182062
0.0193105
0.0199119
0.0197206
0.0183512
0.0154519
0.0107736
0.0040082
-0.00528734
-0.0173335
-0.0316788
-0.0472208
-0.062504
-0.0758353
-0.0854911
-0.0902484
-0.0898072
-0.0848175
-0.0766692
-0.0671038
-0.0574839
-0.0479749
-0.0375187
-0.0249411
-0.0102613
0.00498978
0.0186352
0.0291728
0.0364798
0.0412008
0.0433017
0.0412419
0.0326331
0.0158204
-0.00879835
-0.0385052
-0.0690949
-0.0961775
-0.116182
-0.126753
-0.126753
-0.116182
-0.0961773
-0.0690945
-0.0385045
-0.00879735
0.0158216
0.0326346
0.0412438
0.0433042
0.0412041
0.0364841
0.0291778
0.0186406
0.00499507
-0.0102565
-0.0249374
-0.0375164
-0.0479743
-0.057485
-0.0671067
-0.0766738
-0.0848236
-0.0898145
-0.0902565
-0.0854994
-0.0758432
-0.0625111
-0.0472266
-0.0316829
-0.0173356
-0.00528758
0.00400976
0.0107767
0.0154563
0.0183564
0.0197262
0.0199173
0.0193155
0.0182105
0.0167863
0.0151536
0.0133523
0.0114407
0.00956257
0.00780515
0.00604708
0.0041685
0.00232141
0.000721962
0.000995922
0.0031459
0.0055228
0.00783802
0.00985668
0.0116522
0.0133508
0.014898
0.016175
0.0171179
0.0176534
0.0176598
0.0170363
0.0156951
0.0134899
0.010205
0.00553823
-0.00100657
-0.0100339
-0.0217606
-0.0355805
-0.0502569
-0.0644121
-0.0766877
-0.0857908
-0.0907737
-0.0913024
-0.0877268
-0.0810628
-0.0727994
-0.0642289
-0.0555415
-0.0456691
-0.033337
-0.0184334
-0.00243599
0.0124013
0.0244035
0.0332372
0.0393176
0.0423688
0.0406403
0.0316433
0.0137829
-0.0123318
-0.0436878
-0.0757978
-0.104084
-0.124898
-0.135873
-0.135872
-0.124897
-0.104083
-0.0757961
-0.0436856
-0.0123292
0.0137857
0.0316462
0.0406433
0.0423719
0.0393209
0.0332406
0.024407
0.0124047
-0.00243292
-0.0184309
-0.0333352
-0.0456681
-0.0555415
-0.0642299
-0.0728016
-0.0810661
-0.0877312
-0.0913078
-0.0907798
-0.0857974
-0.0766944
-0.0644185
-0.0502627
-0.0355852
-0.0217639
-0.0100356
-0.00100666
0.00553976
0.010208
0.013494
0.0157001
0.0170416
0.017665
0.0176582
0.017122
0.0161782
0.0149003
0.0133523
0.0116531
0.00985708
0.00783811
0.00552273
0.00314579
0.000995872
0.00129303
0.0040222
0.00692359
0.00965117
0.0119061
0.0137074
0.0151512
0.016175
0.0166637
0.0165667
0.0158411
0.0144397
0.0124163
0.00992132
0.00705527
0.00373325
-0.000408781
-0.00606817
-0.0140433
-0.0246193
-0.0371393
-0.0503268
-0.0629289
-0.0739283
-0.0824502
-0.0877957
-0.0895558
-0.0877293
-0.0829024
-0.0762504
-0.0689497
-0.0612288
-0.0520935
-0.0402774
-0.0256039
-0.00949082
0.0057968
0.0184998
0.0281526
0.0350078
0.038625
0.0371447
0.0280756
0.00993205
-0.0165079
-0.0480788
-0.0802193
-0.10838
-0.129014
-0.139865
-0.139865
-0.129013
-0.108378
-0.0802164
-0.0480753
-0.0165041
0.00993613
0.0280797
0.0371486
0.0386286
0.0350109
0.0281552
0.0185018
0.00579808
-0.00949021
-0.0256038
-0.0402777
-0.052094
-0.0612295
-0.0689506
-0.0762517
-0.0829044
-0.0877319
-0.089559
-0.0877996
-0.0824546
-0.0739332
-0.0629342
-0.0503321
-0.0371443
-0.0246235
-0.0140465
-0.00606996
-0.000409071
0.00373449
0.00705795
0.0099252
0.012421
0.0144449
0.0158462
0.0165714
0.0166678
0.0161782
0.0151536
0.0137091
0.0119071
0.00965174
0.00692384
0.00402228
0.00129304
0.00162081
0.00496796
0.00838678
0.0114884
0.0139339
0.0156865
0.016783
0.0171179
0.0165667
0.0151262
0.012867
0.00991239
0.00652898
0.00310192
-6.43478e-05
-0.00296261
-0.00603046
-0.0101636
-0.0163752
-0.0250991
-0.0357555
-0.0471311
-0.0581087
-0.0679328
-0.0760363
-0.0818844
-0.0849614
-0.0849301
-0.0819723
-0.0769517
-0.0709101
-0.0641169
-0.0557126
-0.044542
-0.0304531
-0.0148306
9.88794e-05
0.0125899
0.0221533
0.0289902
0.0326219
0.0312099
0.0223558
0.00470436
-0.0208714
-0.0512209
-0.08193
-0.108688
-0.128206
-0.13844
-0.138439
-0.128204
-0.108685
-0.0819261
-0.0512165
-0.0208666
0.00470928
0.0223606
0.0312144
0.0326258
0.0289931
0.022155
0.0125904
9.82003e-05
-0.0148323
-0.0304553
-0.0445442
-0.0557145
-0.0641182
-0.070911
-0.0769523
-0.081973
-0.0849309
-0.0849625
-0.081886
-0.0760385
-0.0679358
-0.0581124
-0.0471355
-0.0357603
-0.0251038
-0.0163794
-0.010167
-0.00603259
-0.00296328
-6.34577e-05
0.00310432
0.00653265
0.00991699
0.0128721
0.0151313
0.0165714
0.017122
0.0167863
0.015689
0.0139357
0.0114896
0.00838747
0.00496832
0.00162091
0.00201204
0.00607392
0.0100383
0.0134764
0.0160298
0.0176152
0.0182062
0.0176534
0.0158411
0.012867
0.00899996
0.00461224
0.000201346
-0.00367343
-0.00660264
-0.00855941
-0.0100674
-0.0121938
-0.0161563
-0.0225947
-0.031121
-0.0406756
-0.0502581
-0.059242
-0.0671956
-0.0736307
-0.0779112
-0.079435
-0.0780716
-0.0744276
-0.0694154
-0.0633427
-0.055525
-0.0450072
-0.0317593
-0.0171782
-0.0034145
0.00790062
0.0163775
0.0222956
0.0252803
0.0236519
0.0151958
-0.00130211
-0.0249537
-0.0527846
-0.0807336
-0.104923
-0.12247
-0.131635
-0.131635
-0.122468
-0.10492
-0.0807293
-0.0527798
-0.0249486
-0.00129688
0.0152009
0.0236565
0.025284
0.0222981
0.0163784
0.00789997
-0.00341666
-0.0171815
-0.0317631
-0.0450109
-0.0555279
-0.0633447
-0.0694164
-0.0744278
-0.0780713
-0.0794344
-0.0779105
-0.0736302
-0.0671956
-0.059243
-0.0502602
-0.0406788
-0.0311252
-0.0225995
-0.0161612
-0.0121984
-0.0100712
-0.00856199
-0.00660369
-0.00367282
0.000203554
0.0046158
0.00900452
0.0128721
0.0158462
0.0176582
0.0182105
0.0176187
0.0160325
0.0134783
0.0100396
0.00607464
0.00201227
0.00248264
0.00738527
0.0119415
0.0156718
0.0182102
0.0194439
0.0193105
0.0176598
0.0144397
0.00991239
0.00461224
-0.000799176
-0.00562156
-0.00922748
-0.0112385
-0.0117014
-0.011239
-0.0110456
-0.0125046
-0.0164822
-0.0228618
-0.0308026
-0.0393878
-0.0479711
-0.0560677
-0.0631142
-0.0683559
-0.0710281
-0.0708148
-0.068145
-0.0638172
-0.05817
-0.0507189
-0.0407855
-0.0285543
-0.015485
-0.00362274
0.00561232
0.0120522
0.0161776
0.0178409
0.0156371
0.00761113
-0.00730076
-0.0282581
-0.0525843
-0.0767291
-0.0974085
-0.112278
-0.119997
-0.119997
-0.112275
-0.0974049
-0.0767247
-0.0525795
-0.028253
-0.00729574
0.00761589
0.0156412
0.0178441
0.0161794
0.0120524
0.00561083
-0.00362576
-0.0154891
-0.0285589
-0.0407899
-0.0507226
-0.0581726
-0.0638185
-0.0681452
-0.070814
-0.0710265
-0.0683538
-0.0631121
-0.0560659
-0.0479702
-0.0393882
-0.0308044
-0.0228651
-0.0164867
-0.0125097
-0.011051
-0.0112441
-0.0117057
-0.0112415
-0.00922876
-0.0056211
-0.000797037
0.0046158
0.00991699
0.0144449
0.017665
0.0193155
0.0194483
0.0182138
0.0156746
0.0119435
0.00738645
0.00248304
0.00298929
0.0087829
0.0139263
0.0178774
0.0202643
0.0209608
0.0199119
0.0170363
0.0124163
0.00652898
0.000201346
-0.00562156
-0.0100951
-0.0126374
-0.0130299
-0.0114767
-0.00870784
-0.00599948
-0.00485182
-0.00635347
-0.010703
-0.0173196
-0.0253353
-0.0339518
-0.0424615
-0.050115
-0.056047
-0.0594367
-0.0599119
-0.0578033
-0.0538066
-0.0482757
-0.0409401
-0.0314617
-0.0203222
-0.00909533
0.000294314
0.00671598
0.0103303
0.0119215
0.0116595
0.00849193
0.000776119
-0.0123954
-0.0302701
-0.0505416
-0.0702613
-0.0868414
-0.0985753
-0.1046
-0.104599
-0.098573
-0.086838
-0.0702573
-0.0505373
-0.0302657
-0.0123911
0.000780035
0.00849518
0.0116617
0.0119225
0.0103298
0.00671402
0.000291087
-0.00909948
-0.0203268
-0.0314662
-0.0409439
-0.0482785
-0.0538082
-0.0578036
-0.059911
-0.0594348
-0.0560442
-0.0501117
-0.0424583
-0.0339494
-0.0253341
-0.0173199
-0.0107051
-0.00635704
-0.0048566
-0.00600505
-0.00871365
-0.0114821
-0.0130344
-0.0126404
-0.0100964
-0.0056211
0.000203553
0.00653265
0.012421
0.0170416
0.0199173
0.020966
0.0202688
0.017881
0.013929
0.00878456
0.00298986
0.00341227
0.00993329
0.0155125
0.0195504
0.0216674
0.0217284
0.0197206
0.0156951
0.00992132
0.00310192
-0.00367343
-0.00922748
-0.0126374
-0.013447
-0.011673
-0.00771756
-0.00241442
0.0029132
0.00668346
0.00759466
0.00511163
-0.000466339
-0.00829385
-0.0173211
-0.0264818
-0.0347458
-0.0411367
-0.0448643
-0.0456135
-0.0436881
-0.0396862
-0.0339545
-0.0264391
-0.0171889
-0.00705211
0.00222805
0.00883386
0.0119624
0.0121783
0.0106527
0.00794523
0.00341295
-0.00424171
-0.0157718
-0.0305454
-0.0466672
-0.0618243
-0.0741575
-0.0826327
-0.0868926
-0.0868919
-0.0826309
-0.0741549
-0.0618212
-0.046664
-0.0305422
-0.0157688
-0.00423909
0.00341497
0.00794638
0.0106528
0.0121773
0.0119604
0.00883093
0.0022245
-0.00705596
-0.0171927
-0.0264425
-0.0339572
-0.039688
-0.0436888
-0.0456131
-0.0448625
-0.0411338
-0.0347422
-0.026478
-0.0173177
-0.00829139
-0.000465281
0.00511103
0.00759236
0.0066796
0.00290808
-0.00242032
-0.00772363
-0.0116786
-0.0134515
-0.0126404
-0.00922876
-0.00367282
0.00310432
0.0099252
0.0157001
0.0197262
0.021734
0.0216726
0.0195548
0.0155159
0.0099354
0.003413
0.00359719
0.0104031
0.0160685
0.0199697
0.0217202
0.0211667
0.0183512
0.0134899
0.00705527
-6.43478e-05
-0.00660264
-0.0112385
-0.0130299
-0.011673
-0.00742159
-0.000865118
0.00707438
0.0150393
0.0213756
0.0245731
0.0237582
0.0189462
0.0109791
0.00122154
-0.00880603
-0.0177122
-0.0243912
-0.028139
-0.0287892
-0.0266861
-0.0223445
-0.0160826
-0.00805127
0.00129445
0.0106946
0.0181815
0.0219963
0.0216448
0.0181215
0.0130477
0.00744597
0.0011408
-0.00679449
-0.0169736
-0.0289287
-0.0412116
-0.0521448
-0.0605581
-0.0660346
-0.0686737
-0.0686732
-0.0660333
-0.0605564
-0.0521429
-0.0412099
-0.0289272
-0.0169723
-0.00679343
0.00114149
0.00744612
0.0130472
0.0181202
0.0216429
0.0219939
0.0181789
0.0106919
0.00129174
-0.0080538
-0.0160848
-0.0223462
-0.0266871
-0.0287892
-0.0281379
-0.0243889
-0.0177089
-0.00880221
0.00122536
0.0109824
0.0189484
0.023759
0.0245722
0.021373
0.0150352
0.00706895
-0.000871223
-0.00742774
-0.0116786
-0.0130344
-0.0112415
-0.0066037
-6.34632e-05
0.00705795
0.013494
0.0183564
0.0211723
0.0217257
0.0199746
0.0160723
0.0104056
0.00359804
0.00344177
0.00990165
0.0151597
0.0186209
0.0199001
0.0188132
0.0154519
0.010205
0.00373325
-0.00296261
-0.00855941
-0.0117014
-0.0114767
-0.00771756
-0.000865118
0.00834677
0.0189182
0.029442
0.0381782
0.0434192
0.0439845
0.0396363
0.0312357
0.0204914
0.00942872
-0.000144434
-0.00696661
-0.0104462
-0.0106358
-0.00799493
-0.00299221
0.00408971
0.0129247
0.0226741
0.0316664
0.0376765
0.0389392
0.035197
0.0278402
0.0189687
0.0101357
0.00169378
-0.00689328
-0.0161303
-0.0257724
-0.0348586
-0.0423208
-0.0475744
-0.0506734
-0.0520408
-0.0520405
-0.0506727
-0.0475737
-0.0423203
-0.0348587
-0.0257728
-0.0161308
-0.00689384
0.00169323
0.010135
0.0189677
0.027839
0.0351955
0.0389375
0.0376748
0.0316647
0.0226726
0.0129232
0.00408825
-0.00299355
-0.00799592
-0.0106362
-0.0104457
-0.00696505
-0.000141889
0.00943201
0.0204951
0.0312393
0.0396394
0.0439864
0.0434197
0.038177
0.0294391
0.0189137
0.00834121
-0.000871228
-0.00772364
-0.0114821
-0.0117057
-0.00856199
-0.00296329
0.00373448
0.010208
0.0154563
0.0188184
0.0199055
0.0186259
0.0151637
0.00990427
0.00344268
0.00294716
0.00842409
0.0127547
0.015424
0.0160676
0.0144706
0.0107736
0.00553823
-0.000408781
-0.00603046
-0.0100674
-0.011239
-0.00870784
-0.00241442
0.00707438
0.0189182
0.0320272
0.044903
0.0556985
0.0625477
0.06405
0.0597976
0.0507088
0.0388374
0.0267073
0.0165498
0.0097934
0.00690671
0.00756726
0.0111228
0.0170855
0.0251924
0.0349793
0.0452902
0.054099
0.0589396
0.0579927
0.051144
0.040098
0.0274122
0.0152048
0.00439536
-0.00515996
-0.0139
-0.0218632
-0.0286013
-0.0335991
-0.0367106
-0.0382641
-0.0388276
-0.0388275
-0.0382641
-0.036711
-0.0336
-0.028603
-0.0218653
-0.0139022
-0.00516192
0.00439375
0.0152035
0.027411
0.0400968
0.0511429
0.0579917
0.0589387
0.0540984
0.0452897
0.0349788
0.0251917
0.0170848
0.0111221
0.00756682
0.0069068
0.00979423
0.0165515
0.0267097
0.0388405
0.0507122
0.059801
0.0640527
0.0625493
0.0556987
0.0449015
0.0320241
0.0189137
0.00706894
-0.00242034
-0.00871366
-0.0112441
-0.0100712
-0.0060326
-0.00040908
0.00553976
0.0107767
0.0144748
0.0160724
0.0154286
0.0127586
0.00842664
0.00294807
0.00216916
0.00611447
0.00902475
0.0105019
0.0102346
0.00800167
0.0040082
-0.00100657
-0.00606817
-0.0101636
-0.0121938
-0.0110456
-0.00599948
0.0029132
0.0150393
0.029442
0.044903
0.0597761
0.0720961
0.0799162
0.0817611
0.077189
0.0672333
0.0542652
0.0412395
0.030755
0.0243868
0.0224795
0.0244201
0.0293008
0.0365333
0.045826
0.0566002
0.0674651
0.0761419
0.0799924
0.0771425
0.0675483
0.0531327
0.0368467
0.021353
0.00813267
-0.00259035
-0.0112354
-0.0181615
-0.0234189
-0.0269546
-0.028907
-0.0297008
-0.0298967
-0.0298969
-0.0297015
-0.0289083
-0.0269568
-0.0234218
-0.0181648
-0.0112387
-0.00259329
0.00813026
0.0213511
0.0368452
0.0531315
0.0675475
0.077142
0.0799923
0.076142
0.0674653
0.0566004
0.0458261
0.0365332
0.0293006
0.0244199
0.0224795
0.0243871
0.0307558
0.0412409
0.0542673
0.067236
0.0771921
0.0817641
0.0799186
0.0720975
0.0597761
0.0449015
0.0294391
0.0150351
0.00290807
-0.00600506
-0.011051
-0.0121984
-0.010167
-0.00606997
-0.00100667
0.00400975
0.00800455
0.0102383
0.0105057
0.00902805
0.00611672
0.00216997
0.00112309
0.00300315
0.00397439
0.00378554
0.0022228
-0.0008983
-0.00528734
-0.0100339
-0.0140433
-0.0163752
-0.0161563
-0.0125046
-0.00485182
0.00668346
0.0213756
0.0381782
0.0556985
0.0720961
0.0852959
0.0933718
0.0949451
0.089696
0.0788297
0.0649767
0.0514024
0.040966
0.0353458
0.0347804
0.0383928
0.0449984
0.0538299
0.0644882
0.0762652
0.0876029
0.0960833
0.0990012
0.0944733
0.0824967
0.0651319
0.0456353
0.0271445
0.0116494
-0.000306004
-0.00915896
-0.0155887
-0.0200808
-0.0229293
-0.0244285
-0.0249936
-0.0251058
-0.0251063
-0.024995
-0.0244308
-0.0229325
-0.0200846
-0.0155927
-0.0091628
-0.000309457
0.0116464
0.0271421
0.0456335
0.0651308
0.0824962
0.0944733
0.0990016
0.096084
0.0876036
0.0762657
0.0644886
0.0538302
0.0449986
0.038393
0.0347805
0.0353459
0.0409662
0.051403
0.0649779
0.0788315
0.0896985
0.094948
0.0933747
0.0852982
0.0720975
0.0556987
0.038177
0.021373
0.00667958
-0.00485662
-0.0125097
-0.0161612
-0.0163794
-0.0140465
-0.0100356
-0.00528759
-0.000897193
0.00222487
0.00378805
0.00397675
0.00300483
0.0011237
-0.000242614
-0.0010578
-0.00262156
-0.00499804
-0.00825052
-0.0124862
-0.0173335
-0.0217606
-0.0246193
-0.0250991
-0.0225947
-0.0164822
-0.00635347
0.00759466
0.0245731
0.0434192
0.0625477
0.0799162
0.0933718
0.101106
0.101978
0.0959123
0.0843058
0.0699542
0.0562777
0.0462653
0.0416554
0.0426296
0.0481301
0.0567279
0.0674202
0.0796023
0.0923866
0.104089
0.112263
0.114255
0.108247
0.0942741
0.0744682
0.0522903
0.0312531
0.0137728
0.00065743
-0.00856887
-0.0148722
-0.0190812
-0.0217192
-0.0231456
-0.0237296
-0.0238763
-0.0238769
-0.0237315
-0.0231486
-0.0217229
-0.0190852
-0.0148762
-0.00857273
0.000653887
0.0137696
0.0312504
0.0522882
0.0744669
0.0942737
0.108247
0.114256
0.112264
0.10409
0.0923872
0.0796029
0.0674207
0.0567285
0.0481307
0.04263
0.0416556
0.0462653
0.0562777
0.0699546
0.0843068
0.095914
0.101981
0.101108
0.0933747
0.0799186
0.0625493
0.0434197
0.0245722
0.00759234
-0.00635706
-0.0164867
-0.0225995
-0.0251038
-0.0246236
-0.0217639
-0.0173357
-0.0124872
-0.00825045
-0.00499729
-0.00262057
-0.001057
-0.0002423
-0.00197924
-0.00619931
-0.0109128
-0.0159375
-0.0211344
-0.026516
-0.0316788
-0.0355805
-0.0371393
-0.0357555
-0.031121
-0.0228618
-0.010703
0.00511163
0.0237582
0.0439845
0.06405
0.0817611
0.0949451
0.101978
0.102036
0.0953258
0.0834024
0.0690977
0.0558181
0.0465521
0.0430679
0.0455658
0.0529292
0.0635584
0.0761844
0.089902
0.103583
0.115452
0.123148
0.124203
0.11694
0.101429
0.0797926
0.0555867
0.032589
0.0135565
-0.000486405
-0.0100577
-0.0163673
-0.0205063
-0.0231376
-0.0246279
-0.0252932
-0.0254913
-0.025492
-0.0252954
-0.0246311
-0.0231414
-0.0205103
-0.0163712
-0.0100613
-0.000489763
0.0135534
0.0325863
0.0555846
0.0797913
0.101429
0.116941
0.124204
0.123149
0.115453
0.103583
0.0899025
0.0761849
0.0635591
0.05293
0.0455665
0.0430683
0.0465521
0.055818
0.0690976
0.0834028
0.0953268
0.102038
0.101981
0.094948
0.0817641
0.0640527
0.0439864
0.023759
0.00511101
-0.0107051
-0.0228651
-0.0311253
-0.0357603
-0.0371443
-0.0355852
-0.0316829
-0.0265192
-0.0211367
-0.0159389
-0.0109136
-0.00619964
-0.00197932
-0.00405108
-0.0122956
-0.0206375
-0.0285832
-0.0357564
-0.0420856
-0.0472208
-0.0502569
-0.0503268
-0.0471311
-0.0406756
-0.0308026
-0.0173196
-0.000466339
0.0189462
0.0396363
0.0597976
0.077189
0.089696
0.0959123
0.0953258
0.0883975
0.0767564
0.063136
0.0507739
0.042545
0.0402253
0.0441073
0.0531363
0.0656243
0.0800244
0.0950565
0.109306
0.120959
0.127871
0.1279
0.119589
0.103016
0.080203
0.0546826
0.0303984
0.0103807
-0.00416087
-0.0137829
-0.0199134
-0.0238708
-0.0264227
-0.0279155
-0.0286057
-0.0288184
-0.0288191
-0.0286077
-0.0279184
-0.0264262
-0.0238745
-0.0199169
-0.0137862
-0.00416386
0.010378
0.030396
0.0546807
0.0802019
0.103016
0.11959
0.127901
0.127871
0.120959
0.109307
0.0950568
0.0800248
0.0656249
0.0531371
0.0441082
0.040226
0.0425453
0.050774
0.063136
0.0767565
0.0883979
0.0953268
0.095914
0.0896985
0.0771921
0.0598009
0.0396394
0.0189484
-0.000465298
-0.01732
-0.0308044
-0.0406788
-0.0471355
-0.0503321
-0.0502627
-0.0472266
-0.042091
-0.0357611
-0.0285869
-0.0206401
-0.0122972
-0.00405162
-0.00628117
-0.0188197
-0.0309371
-0.0417922
-0.0507681
-0.0577423
-0.062504
-0.0644121
-0.0629289
-0.0581087
-0.0502581
-0.0393878
-0.0253353
-0.00829385
0.0109791
0.0312357
0.0507088
0.0672333
0.0788297
0.0843058
0.0834024
0.0767564
0.065988
0.0536321
0.0426497
0.0357193
0.0345968
0.0397046
0.0501296
0.0641588
0.0799683
0.09586
0.110119
0.120955
0.126579
0.125321
0.116017
0.0987326
0.0753016
0.0491379
0.0242726
0.0039555
-0.010447
-0.0195377
-0.0249655
-0.0282868
-0.030386
-0.0315949
-0.0321128
-0.0322374
-0.0322379
-0.0321142
-0.0315972
-0.0303888
-0.0282899
-0.0249685
-0.0195405
-0.0104495
0.0039533
0.0242707
0.0491364
0.0753006
0.0987322
0.116017
0.125322
0.12658
0.120955
0.110119
0.0958602
0.0799686
0.0641593
0.0501303
0.0397055
0.0345977
0.0357201
0.0426503
0.0536325
0.0659881
0.0767565
0.0834028
0.0843068
0.0788315
0.0672361
0.0507122
0.0312393
0.0109824
-0.0082914
-0.0253341
-0.0393882
-0.0502602
-0.0581124
-0.0629342
-0.0644185
-0.0625111
-0.0577496
-0.050775
-0.0417982
-0.0309418
-0.0188226
-0.00628218
-0.00834527
-0.0248303
-0.0403496
-0.0537397
-0.0641863
-0.0715592
-0.0758353
-0.0766877
-0.0739283
-0.0679328
-0.059242
-0.0479711
-0.0339518
-0.0173211
0.00122154
0.0204914
0.0388374
0.0542652
0.0649767
0.0699542
0.0690977
0.063136
0.0536321
0.0428915
0.0335625
0.0280813
0.0281413
0.034281
0.0457528
0.0608587
0.0775181
0.0936151
0.107149
0.116416
0.120091
0.117083
0.106604
0.0887261
0.0650562
0.038831
0.0141037
-0.00572468
-0.019191
-0.0269822
-0.0309844
-0.0330024
-0.0340532
-0.0344807
-0.0344618
-0.0343043
-0.0343046
-0.0344627
-0.0344822
-0.0340551
-0.0330045
-0.0309866
-0.0269843
-0.0191929
-0.00572634
0.0141023
0.0388299
0.0650554
0.0887256
0.106604
0.117083
0.12009
0.116416
0.107149
0.0936151
0.0775183
0.0608591
0.0457534
0.0342817
0.0281423
0.0280824
0.0335636
0.0428923
0.0536325
0.063136
0.0690977
0.0699546
0.0649779
0.0542673
0.0388405
0.0204951
0.00122536
-0.0173177
-0.0339494
-0.0479702
-0.059243
-0.0679358
-0.0739332
-0.0766944
-0.0758432
-0.0715679
-0.064195
-0.0537475
-0.0403559
-0.0248344
-0.00834668
-0.0098584
-0.0292194
-0.0471806
-0.0623568
-0.073823
-0.0814819
-0.0854911
-0.0857908
-0.0824502
-0.0760363
-0.0671956
-0.0560677
-0.0424615
-0.0264818
-0.00880603
0.00942872
0.0267073
0.0412395
0.0514024
0.0562777
0.0558181
0.0507739
0.0426497
0.0335625
0.0258789
0.0217789
0.0228377
0.0296519
0.0416261
0.0571139
0.0738373
0.089318
0.101313
0.108243
0.109283
0.103983
0.0919942
0.0734606
0.0497983
0.0240466
0.000203971
-0.0182952
-0.0300086
-0.0357752
-0.0377157
-0.0378353
-0.0372478
-0.0363283
-0.0353101
-0.0346074
-0.0346076
-0.0353107
-0.0363291
-0.0372488
-0.0378365
-0.0377169
-0.0357764
-0.0300098
-0.0182964
0.000202855
0.0240457
0.0497976
0.0734601
0.0919936
0.103982
0.109282
0.108242
0.101312
0.0893179
0.0738375
0.0571142
0.0416265
0.0296524
0.0228385
0.02178
0.0258802
0.0335636
0.0426503
0.050774
0.055818
0.0562778
0.051403
0.0412409
0.0267097
0.00943202
-0.00880221
-0.026478
-0.0424583
-0.0560659
-0.0671956
-0.0760385
-0.0824546
-0.0857974
-0.0854994
-0.0814913
-0.0738327
-0.0623658
-0.0471879
-0.0292242
-0.00986008
-0.0105347
-0.0311691
-0.0501927
-0.0661525
-0.0781212
-0.0860596
-0.0902484
-0.0907737
-0.0877957
-0.0818844
-0.0736307
-0.0631142
-0.050115
-0.0347458
-0.0177122
-0.000144434
0.0165498
0.030755
0.040966
0.0462653
0.0465521
0.042545
0.0357193
0.0280813
0.0217789
0.0187362
0.0203485
0.0271987
0.0388262
0.0537
0.0694605
0.0833798
0.0930397
0.0969906
0.0948745
0.0868599
0.0730785
0.0538338
0.0304286
0.00570233
-0.0165079
-0.0329075
-0.0422379
-0.0455611
-0.0451795
-0.0431681
-0.0406261
-0.0379517
-0.035534
-0.0340364
-0.0340366
-0.0355343
-0.0379521
-0.0406266
-0.0431684
-0.0451799
-0.0455616
-0.0422386
-0.0329084
-0.0165088
0.00570161
0.0304281
0.0538334
0.0730781
0.0868592
0.0948736
0.0969898
0.0930392
0.0833797
0.0694607
0.0537002
0.0388264
0.0271989
0.020349
0.0187371
0.02178
0.0280824
0.0357201
0.0425454
0.0465522
0.0462653
0.0409662
0.0307559
0.0165515
-0.000141878
-0.0177089
-0.0347422
-0.0501117
-0.063112
-0.0736302
-0.081886
-0.0877996
-0.0907798
-0.0902565
-0.086069
-0.078131
-0.0661618
-0.0502004
-0.0311742
-0.0105365
-0.0103058
-0.0304884
-0.0491096
-0.0648115
-0.0767645
-0.0849908
-0.0898072
-0.0913024
-0.0895558
-0.0849614
-0.0779112
-0.0683559
-0.056047
-0.0411367
-0.0243912
-0.00696661
0.0097934
0.0243868
0.0353458
0.0416554
0.0430679
0.0402253
0.0345968
0.0281413
0.0228377
0.0203485
0.021833
0.0278046
0.0379473
0.0509493
0.0645363
0.0758893
0.0824984
0.0830272
0.0774978
0.0666137
0.0509807
0.0311337
0.0083348
-0.0147938
-0.0347109
-0.0484595
-0.055126
-0.056033
-0.0535574
-0.0496571
-0.0452616
-0.0407515
-0.0367546
-0.0343219
-0.034322
-0.0367549
-0.0407519
-0.0452619
-0.0496572
-0.0535574
-0.0560331
-0.0551263
-0.04846
-0.0347114
-0.0147943
0.00833457
0.0311336
0.0509806
0.0666134
0.0774971
0.0830264
0.0824978
0.075889
0.0645363
0.0509493
0.0379472
0.0278046
0.0218331
0.020349
0.0228385
0.0281423
0.0345977
0.040226
0.0430683
0.0416556
0.035346
0.0243872
0.00979425
-0.00696504
-0.0243888
-0.0411338
-0.0560442
-0.0683538
-0.0779105
-0.0849625
-0.089559
-0.0913078
-0.0898144
-0.0849995
-0.0767737
-0.0648202
-0.0491169
-0.0304932
-0.0103075
-0.00932356
-0.0276189
-0.0446188
-0.0591896
-0.0706689
-0.0791231
-0.0848175
-0.0877268
-0.0877293
-0.0849301
-0.079435
-0.0710281
-0.0594367
-0.0448643
-0.028139
-0.0104462
0.00690671
0.0224795
0.0347804
0.0426296
0.0455658
0.0441073
0.0397046
0.034281
0.0296519
0.0271987
0.0278046
0.0318889
0.039316
0.0491172
0.0592868
0.0670905
0.070023
0.066846
0.0578623
0.0441988
0.0268855
0.00671466
-0.015058
-0.0360681
-0.053209
-0.0640392
-0.0681084
-0.0669895
-0.0630004
-0.0577977
-0.0519943
-0.0458982
-0.0404116
-0.0370557
-0.0370558
-0.0404118
-0.0458985
-0.0519946
-0.0577979
-0.0630005
-0.0669894
-0.0681084
-0.0640392
-0.0532091
-0.0360682
-0.015058
0.00671478
0.0268856
0.0441987
0.0578619
0.0668455
0.0700226
0.0670902
0.0592866
0.049117
0.0393158