/*--------------------------------*- C++ -*----------------------------------*\
  =========                 |
  \\      /  F ield         | OpenFOAM: The Open Source CFD Toolbox
   \\    /   O peration     | Website:  https://openfoam.org
    \\  /    A nd           | Version:  10
     \\/     M anipulation  |
\*---------------------------------------------------------------------------*/
FoamFile
{
    format      ascii;
    class       volScalarField;
    location    "96";
    object      h_0;
}
// * * * * * * * * * * * * * * * * * * * * * * * * * * * * * * * * * * * * * //

dimensions      [0 1 0 0 0 0 0];

internalField   nonuniform List<scalar> 
10000
(
4.35759e-05
0.000129345
0.00020578
0.000270082
0.000349952
0.000492663
0.000714581
0.000987354
0.00128263
0.00160929
0.00200166
0.00247525
0.00298496
0.00341056
0.00359913
0.00345017
0.00296555
0.00220025
0.00116709
-0.000188992
-0.00192195
-0.00399627
-0.00623312
-0.00830632
-0.0098302
-0.0105191
-0.0103048
-0.00933886
-0.00790149
-0.00627803
-0.00465082
-0.00304858
-0.0013972
0.000348523
0.00209674
0.00362493
0.00469704
0.00521424
0.00527983
0.00509832
0.00478288
0.00425069
0.00328797
0.0017072
-0.000512478
-0.00317093
-0.00590763
-0.00833127
-0.0101234
-0.0110725
-0.0110726
-0.0101238
-0.00833179
-0.00590823
-0.00317153
-0.00051301
0.00170678
0.0032877
0.00425063
0.00478307
0.00509879
0.0052806
0.00521528
0.0046983
0.0036263
0.0020981
0.000349716
-0.00139632
-0.00304813
-0.00465089
-0.00627862
-0.00790257
-0.00934033
-0.0103065
-0.0105209
-0.00983188
-0.00830773
-0.00623413
-0.00399681
-0.00192203
-0.000188677
0.0011677
0.00220106
0.00296646
0.00345108
0.00359998
0.00341128
0.00298552
0.00247564
0.00200189
0.0016094
0.00128265
0.000987303
0.000714487
0.000492546
0.000349832
0.000269977
0.000205702
0.000129296
4.35588e-05
0.000129345
0.000391067
0.000641913
0.000872475
0.00115487
0.001618
0.00230361
0.00312506
0.00399627
0.00493875
0.00604771
0.00736728
0.00877343
0.00993127
0.0104117
0.00992899
0.00848005
0.00620654
0.0031318
-0.000901887
-0.00603293
-0.0121362
-0.0186794
-0.0247161
-0.0291362
-0.0311224
-0.030484
-0.0276616
-0.0234677
-0.018734
-0.0139973
-0.00934192
-0.00454119
0.000553056
0.00568344
0.0102018
0.0134142
0.0150233
0.0153189
0.0148863
0.0140453
0.0125396
0.0097266
0.0050464
-0.00155899
-0.00948909
-0.0176675
-0.0249223
-0.0302928
-0.0331382
-0.0331385
-0.0302938
-0.0249237
-0.0176691
-0.00949072
-0.00156045
0.00504524
0.00972588
0.0125395
0.0140458
0.0148877
0.0153211
0.0150264
0.0134178
0.0102057
0.00568726
0.000556381
-0.00453876
-0.00934072
-0.0139975
-0.0187357
-0.0234708
-0.0276658
-0.0304888
-0.0311275
-0.029141
-0.0247201
-0.0186823
-0.0121378
-0.00603324
-0.00090106
0.00313349
0.0062088
0.00848261
0.0099316
0.0104142
0.00993337
0.00877508
0.00736844
0.00604842
0.0049391
0.00399635
0.00312495
0.00230336
0.00161768
0.00115454
0.00087218
0.000641688
0.000390926
0.000129296
0.00020578
0.000641913
0.00110563
0.00157623
0.00214141
0.00298033
0.00414614
0.00549664
0.0068902
0.00834853
0.0100045
0.01192
0.0139178
0.015516
0.0160894
0.0152104
0.0128495
0.00917401
0.00417831
-0.00237694
-0.0106525
-0.0203872
-0.0307157
-0.040168
-0.0470473
-0.0501163
-0.0490991
-0.0446814
-0.0381217
-0.030724
-0.0233437
-0.0161109
-0.00863083
-0.000614942
0.00756809
0.0149005
0.020268
0.0231658
0.0240052
0.0236653
0.0226091
0.0203816
0.0159117
0.00828252
-0.0025815
-0.015674
-0.0292139
-0.0412549
-0.0501842
-0.0549182
-0.0549187
-0.0501855
-0.0412568
-0.0292161
-0.0156762
-0.00258354
0.0082809
0.0159107
0.0203815
0.02261
0.0236676
0.0240087
0.0231704
0.0202735
0.0149063
0.00757375
-0.000610077
-0.00862735
-0.0161092
-0.0233442
-0.0307267
-0.0381264
-0.0446876
-0.0491064
-0.050124
-0.0470546
-0.0401743
-0.0307202
-0.0203899
-0.0106532
-0.00237591
0.0041807
0.00917733
0.0128534
0.0152144
0.0160932
0.0155193
0.0139205
0.0119219
0.0100058
0.00834921
0.00689045
0.00549656
0.00414583
0.00297988
0.00214092
0.00157579
0.00110528
0.000641688
0.000205702
0.000270082
0.000872475
0.00157623
0.00233789
0.00322437
0.00443133
0.0060179
0.00780529
0.00961087
0.0114434
0.0134379
0.0156497
0.0178729
0.0195633
0.0200077
0.018699
0.0155578
0.010702
0.00405092
-0.0046842
-0.0156046
-0.0282622
-0.0415061
-0.0535035
-0.0621825
-0.0660511
-0.0647934
-0.0592628
-0.0510248
-0.0417321
-0.0324935
-0.0234633
-0.0140557
-0.00378701
0.00694656
0.016844
0.0244219
0.0289443
0.0308368
0.0311294
0.0303211
0.0277189
0.021837
0.0114439
-0.00350942
-0.0215945
-0.0403406
-0.0570473
-0.0694556
-0.0760381
-0.0760385
-0.0694568
-0.0570492
-0.0403428
-0.0215968
-0.00351151
0.0114422
0.021836
0.0277189
0.0303224
0.0311322
0.0308412
0.0289501
0.0244287
0.0168511
0.00695331
-0.00378132
-0.0140517
-0.0234615
-0.0324942
-0.0417353
-0.0510304
-0.0592703
-0.0648022
-0.0660604
-0.0621915
-0.0535113
-0.041512
-0.0282659
-0.0156059
-0.00468339
0.00405347
0.0107058
0.0155624
0.0187039
0.0200126
0.0195677
0.0178765
0.0156524
0.0134398
0.0114445
0.00961142
0.00780538
0.00601763
0.00443084
0.00322379
0.00233735
0.00157579
0.00087218
0.000269977
0.000349952
0.00115487
0.00214141
0.00322437
0.00441639
0.00590495
0.00776367
0.009813
0.0118567
0.0138823
0.0159884
0.0181897
0.0202666
0.0216934
0.0217793
0.0200079
0.016238
0.0104757
0.00253182
-0.0078911
-0.0207546
-0.0353884
-0.0504373
-0.0639118
-0.0736202
-0.0780026
-0.0767397
-0.0707445
-0.0617109
-0.0514825
-0.0413361
-0.0314263
-0.0209657
-0.00922845
0.00345429
0.0156026
0.0254249
0.0319253
0.03542
0.0369233
0.0368424
0.0342071
0.0271589
0.0142309
-0.00453466
-0.02727
-0.0508482
-0.0718736
-0.0874968
-0.0957859
-0.0957863
-0.0874978
-0.071875
-0.0508498
-0.0272717
-0.00453622
0.0142297
0.0271583
0.0342075
0.0368441
0.0369266
0.0354249
0.0319316
0.0254321
0.0156101
0.00346126
-0.00922269
-0.0209618
-0.0314247
-0.041337
-0.0514861
-0.0617168
-0.0707524
-0.0767489
-0.0780125
-0.0736299
-0.0639204
-0.0504442
-0.035393
-0.0207568
-0.00789097
0.00253395
0.0104794
0.0162428
0.0200133
0.0217849
0.0216986
0.0202711
0.0181933
0.0159911
0.0138841
0.0118577
0.00981339
0.00776358
0.00590454
0.00441583
0.00322379
0.00214092
0.00115454
0.000349832
0.000492663
0.001618
0.00298033
0.00443133
0.00590495
0.0075649
0.00951189
0.0116024
0.013656
0.0156375
0.0175807
0.0194341
0.0209775
0.0217734
0.0212504
0.0189498
0.0146705
0.00826881
-0.00056803
-0.0121084
-0.0261173
-0.0416961
-0.0573886
-0.0712643
-0.0812653
-0.0859345
-0.0849636
-0.0791963
-0.0702619
-0.0600272
-0.0498468
-0.0398687
-0.0291302
-0.0166572
-0.00264507
0.0113511
0.0233032
0.0319468
0.0373921
0.0404971
0.0414686
0.0390444
0.0310687
0.0159451
-0.00612447
-0.0328383
-0.0604891
-0.0851073
-0.103381
-0.113069
-0.11307
-0.103381
-0.085108
-0.0604898
-0.0328389
-0.00612494
0.015945
0.0310691
0.0390454
0.0414707
0.0405005
0.0373969
0.0319528
0.0233099
0.0113579
-0.00263879
-0.0166521
-0.0291269
-0.0398675
-0.049848
-0.0600306
-0.0702675
-0.0792037
-0.0849723
-0.0859439
-0.0812747
-0.071273
-0.0573959
-0.0417014
-0.0261204
-0.0121093
-0.000566863
0.00827174
0.0146748
0.0189551
0.021256
0.021779
0.0209826
0.0194384
0.0175841
0.01564
0.0136576
0.0116032
0.00951213
0.00756472
0.00590454
0.00443084
0.00297988
0.00161768
0.000492545
0.000714581
0.00230361
0.00414614
0.0060179
0.00776367
0.00951189
0.0113903
0.0133066
0.0151115
0.0167511
0.0181924
0.0193228
0.019951
0.0197887
0.0184585
0.0156107
0.0109895
0.00428116
-0.00496152
-0.0169658
-0.0312891
-0.0468348
-0.0621485
-0.0755376
-0.0852753
-0.0901279
-0.0897836
-0.0848869
-0.0768254
-0.0673362
-0.0577729
-0.0482899
-0.0378202
-0.0251919
-0.0104393
0.00489058
0.0186142
0.029228
0.0366006
0.0413582
0.0434532
0.0413536
0.032705
0.0158893
-0.00868644
-0.0383346
-0.0688978
-0.0960118
-0.116086
-0.126714
-0.126714
-0.116086
-0.0960116
-0.0688973
-0.0383339
-0.00868543
0.0158906
0.0327066
0.0413556
0.0434558
0.0413616
0.0366048
0.029233
0.0186196
0.00489586
-0.0104346
-0.0251882
-0.0378179
-0.0482893
-0.0577741
-0.0673391
-0.0768301
-0.084893
-0.089791
-0.090136
-0.0852836
-0.0755456
-0.0621556
-0.0468405
-0.0312932
-0.0169679
-0.00496171
0.00428277
0.0109926
0.0156151
0.0184637
0.0197942
0.0199565
0.0193278
0.0181966
0.0167544
0.0151139
0.0133081
0.0113911
0.00951213
0.00776358
0.00601763
0.00414583
0.00230336
0.000714487
0.000987354
0.00312506
0.00549664
0.00780529
0.009813
0.0116024
0.0133066
0.014866
0.0161546
0.0171106
0.0176662
0.0176976
0.0170978
0.0157819
0.0136116
0.0103713
0.00575074
-0.000750966
-0.00973796
-0.0214288
-0.0352242
-0.0498958
-0.0640731
-0.0764027
-0.0855885
-0.0906678
-0.091289
-0.0877934
-0.0811979
-0.0729939
-0.064471
-0.0558117
-0.0459377
-0.0335729
-0.0186161
-0.00255773
0.0123433
0.0244106
0.033301
0.0394103
0.0424493
0.0406796
0.03165
0.0138045
-0.0122414
-0.0435124
-0.0755773
-0.103888
-0.124774
-0.135809
-0.135809
-0.124773
-0.103887
-0.0755756
-0.0435102
-0.0122389
0.0138073
0.0316529
0.0406826
0.0424525
0.0394136
0.0333045
0.0244142
0.0123467
-0.00255468
-0.0186136
-0.0335711
-0.0459368
-0.0558117
-0.0644721
-0.0729961
-0.0812013
-0.0877978
-0.0912944
-0.0906739
-0.085595
-0.0764093
-0.0640795
-0.0499015
-0.0352288
-0.0214321
-0.00973966
-0.000751003
0.00575232
0.0103744
0.0136158
0.0157868
0.0171031
0.0177028
0.017671
0.0171147
0.0161578
0.0148683
0.0133081
0.0116032
0.00981339
0.00780538
0.00549656
0.00312495
0.000987302
0.00128263
0.00399627
0.0068902
0.00961087
0.0118567
0.013656
0.0151115
0.0161546
0.0166614
0.0165815
0.0158765
0.014497
0.0124918
0.0100153
0.00717592
0.00388779
-0.000221625
-0.00585295
-0.0138002
-0.0243455
-0.0368371
-0.0500098
-0.0626234
-0.0736702
-0.0822727
-0.0877129
-0.0895585
-0.0877966
-0.0830166
-0.0764031
-0.0691377
-0.0614446
-0.0523195
-0.040491
-0.025788
-0.00963624
0.00569707
0.0184517
0.0281509
0.0350264
0.0386256
0.0371033
0.0280094
0.00989829
-0.0164486
-0.04791
-0.0799879
-0.108166
-0.128872
-0.139787
-0.139786
-0.128871
-0.108164
-0.079985
-0.0479065
-0.0164447
0.0099024
0.0280135
0.0371073
0.0386292
0.0350295
0.0281534
0.0184537
0.00569832
-0.00963565
-0.0257879
-0.0404913
-0.05232
-0.0614453
-0.0691386
-0.0764045
-0.0830186
-0.0877992
-0.0895617
-0.0877168
-0.0822771
-0.0736752
-0.0626287
-0.050015
-0.0368421
-0.0243497
-0.0138033
-0.0058547
-0.000221871
0.00388908
0.00717863
0.0100192
0.0124966
0.0145022
0.0158817
0.0165862
0.0166654
0.0161578
0.0151139
0.0136576
0.0118577
0.00961142
0.00689045
0.00399635
0.00128264
0.00160929
0.00493875
0.00834853
0.0114434
0.0138823
0.0156375
0.0167511
0.0171106
0.0165815
0.0151598
0.0129196
0.00998216
0.00660967
0.00319127
3.94242e-05
-0.00283937
-0.00589031
-0.0100105
-0.0162056
-0.0249031
-0.0355271
-0.0468777
-0.0578551
-0.0677174
-0.0758953
-0.0818325
-0.0849857
-0.0850033
-0.082072
-0.0770701
-0.0710514
-0.0642852
-0.0559024
-0.0447395
-0.030645
-0.0150062
-4.8664e-05
0.0124813
0.0220816
0.0289311
0.0325392
0.0310841
0.0222112
0.00460643
-0.0208565
-0.051077
-0.08171
-0.10848
-0.128071
-0.138371
-0.13837
-0.128069
-0.108477
-0.0817061
-0.0510726
-0.0208517
0.00461136
0.022216
0.0310886
0.032543
0.028934
0.0220833
0.0124818
-4.93707e-05
-0.0150079
-0.0306471
-0.0447417
-0.0559042
-0.0642865
-0.0710523
-0.0770707
-0.0820726
-0.0850042
-0.0849868
-0.0818341
-0.0758975
-0.0677204
-0.0578589
-0.0468821
-0.0355319
-0.0249078
-0.0162098
-0.0100138
-0.0058924
-0.00284
4.03555e-05
0.0031937
0.00661337
0.00998677
0.0129247
0.0151649
0.0165862
0.0171147
0.0167544
0.01564
0.0138841
0.0114445
0.00834921
0.0049391
0.0016094
0.00200166
0.00604771
0.0100045
0.0134379
0.0159884
0.0175807
0.0181924
0.0176662
0.0158765
0.0129196
0.00906758
0.00469018
0.000280401
-0.0035991
-0.00653077
-0.00848667
-0.00999543
-0.0121233
-0.0160789
-0.0224939
-0.0309838
-0.0405036
-0.0500737
-0.0590838
-0.0671012
-0.0736158
-0.0779619
-0.079521
-0.0781681
-0.0745278
-0.0695291
-0.0634833
-0.0556968
-0.0452043
-0.0319713
-0.0173927
-0.00361515
0.00772895
0.0162349
0.0221584
0.0251129
0.0234383
0.0149663
-0.00147541
-0.0250005
-0.0526893
-0.0805536
-0.104753
-0.122375
-0.131609
-0.131608
-0.122373
-0.104749
-0.0805493
-0.0526844
-0.0249954
-0.00147018
0.0149714
0.0234429
0.0251167
0.0221609
0.0162358
0.00772827
-0.00361733
-0.017396
-0.0319751
-0.045208
-0.0556998
-0.0634853
-0.0695301
-0.074528
-0.0781677
-0.0795204
-0.0779612
-0.0736153
-0.0671013
-0.0590848
-0.0500759
-0.0405069
-0.0309881
-0.0224988
-0.0160838
-0.0121279
-0.00999919
-0.00848921
-0.00653178
-0.00359845
0.000282645
0.00469377
0.00907215
0.0129247
0.0158817
0.017671
0.0181966
0.0175841
0.0159911
0.0134398
0.0100058
0.00604842
0.00200189
0.00247525
0.00736728
0.01192
0.0156497
0.0181897
0.0194341
0.0193228
0.0176976
0.014497
0.00998216
0.00469018
-0.00072041
-0.00555457
-0.00918236
-0.0112168
-0.0117001
-0.0112558
-0.0110751
-0.012532
-0.0164855
-0.0228228
-0.0307189
-0.0392794
-0.0478755
-0.056023
-0.0631375
-0.0684351
-0.071134
-0.0709222
-0.0682476
-0.0639274
-0.0583063
-0.0508922
-0.0409956
-0.0287932
-0.0157387
-0.00387161
0.00538592
0.0118487
0.0159721
0.0175972
0.0153409
0.00729774
-0.00755418
-0.0283783
-0.0525563
-0.0766135
-0.0973037
-0.112252
-0.120042
-0.120041
-0.112249
-0.0973001
-0.0766091
-0.0525515
-0.0283733
-0.00754918
0.00730248
0.0153451
0.0176004
0.0159739
0.0118489
0.0053844
-0.00387465
-0.0157429
-0.0287978
-0.0410001
-0.0508959
-0.0583088
-0.0639287
-0.0682478
-0.0709213
-0.0711324
-0.068433
-0.0631353
-0.0560212
-0.0478746
-0.0392798
-0.0307208
-0.0228261
-0.01649
-0.0125371
-0.0110805
-0.0112608
-0.0117043
-0.0112197
-0.0091836
-0.00555406
-0.000718235
0.00469377
0.00998677
0.0145022
0.0177028
0.0193278
0.0194384
0.0181933
0.0156524
0.0119219
0.00736844
0.00247563
0.00298496
0.00877343
0.0139178
0.0178729
0.0202666
0.0209775
0.019951
0.0170978
0.0124918
0.00660967
0.000280401
-0.00555457
-0.0100562
-0.0126406
-0.0130793
-0.0115672
-0.00882993
-0.00613837
-0.00498521
-0.00645522
-0.0107529
-0.0173139
-0.0252931
-0.0339102
-0.0424587
-0.0501709
-0.056154
-0.059569
-0.0600451
-0.0579297
-0.0539369
-0.0484283
-0.041129
-0.0316905
-0.0205853
-0.00937813
1.30668e-05
0.00645454
0.0100878
0.0116705
0.0113618
0.00813352
0.000394421
-0.0127204
-0.0304641
-0.0505903
-0.0702266
-0.0868226
-0.0986401
-0.104738
-0.104738
-0.0986379
-0.0868193
-0.0702226
-0.050586
-0.0304597
-0.0127162
0.000398308
0.00813674
0.011364
0.0116714
0.0100872
0.00645257
9.82955e-06
-0.00938229
-0.0205899
-0.031695
-0.0411327
-0.0484311
-0.0539384
-0.0579301
-0.0600442
-0.059567
-0.0561512
-0.0501676
-0.0424555
-0.0339078
-0.025292
-0.0173143
-0.010755
-0.00645882
-0.00499002
-0.00614395
-0.00883574
-0.0115726
-0.0130838
-0.0126436
-0.0100575
-0.00555406
0.000282645
0.00661337
0.0124966
0.0171031
0.0199565
0.0209826
0.0202711
0.0178765
0.0139205
0.00877508
0.00298552
0.00341056
0.00993127
0.015516
0.0195633
0.0216934
0.0217734
0.0197887
0.0157819
0.0100153
0.00319127
-0.0035991
-0.00918236
-0.0126406
-0.0135148
-0.0118095
-0.00791279
-0.00264842
0.00266673
0.0064546
0.00741194
0.0049941
-0.000517136
-0.00829829
-0.0173167
-0.0265079
-0.0348259
-0.0412693
-0.0450288
-0.0457866
-0.0438579
-0.0398571
-0.0341401
-0.0266527
-0.0174373
-0.00733252
0.00192898
0.00853767
0.0116871
0.0119214
0.0103841
0.00762393
0.00302273
-0.00466488
-0.0161494
-0.030805
-0.0467953
-0.0618821
-0.0742415
-0.0828069
-0.0871436
-0.087143
-0.0828051
-0.0742389
-0.0618791
-0.0467921
-0.0308019
-0.0161465
-0.0046623
0.00302471
0.00762506
0.0103842
0.0119203
0.0116851
0.00853475
0.00192544
-0.00733636
-0.017441
-0.0266561
-0.0341427
-0.0398589
-0.0438586
-0.0457861
-0.0450271
-0.0412664
-0.0348223
-0.026504
-0.0173133
-0.00829586
-0.000516112
0.00499346
0.0074096
0.0064507
0.00266158
-0.00265434
-0.00791886
-0.0118151
-0.0135193
-0.0126436
-0.0091836
-0.00359845
0.0031937
0.0100192
0.0157868
0.0197942
0.021779
0.0216986
0.0195677
0.0155193
0.00993337
0.00341128
0.00359913
0.0104117
0.0160894
0.0200077
0.0217793
0.0212504
0.0184585
0.0136116
0.00717592
3.94242e-05
-0.00653077
-0.0112168
-0.0130793
-0.0118095
-0.00764657
-0.00116135
0.00673841
0.0147017
0.0210731
0.0243345
0.0235986
0.0188627
0.0109484
0.00120498
-0.00884867
-0.0178082
-0.0245458
-0.0283376
-0.0290088
-0.0269093
-0.022566
-0.016308
-0.00829113
0.00103097
0.010406
0.0178785
0.0216997
0.0213726
0.0178706
0.0127864
0.0071306
0.000750915
-0.00722877
-0.0173804
-0.0292409
-0.0414171
-0.0523013
-0.0607554
-0.0663296
-0.0690481
-0.0690477
-0.0663283
-0.0607536
-0.0522994
-0.0414154
-0.0292394
-0.0173792
-0.00722776
0.000751573
0.00713073
0.0127859
0.0178693
0.0213708
0.0216974
0.0178759
0.0104033
0.00102827
-0.00829365
-0.0163102
-0.0225677
-0.0269102
-0.0290088
-0.0283364
-0.0245435
-0.0178049
-0.00884485
0.0012088
0.0109517
0.0188649
0.0235994
0.0243336
0.0210704
0.0146974
0.00673296
-0.00116747
-0.00765271
-0.0118151
-0.0130838
-0.0112197
-0.00653179
4.03501e-05
0.00717863
0.0136158
0.0184637
0.021256
0.0217849
0.0200126
0.0160932
0.0104142
0.00359998
0.00345017
0.00992899
0.0152104
0.018699
0.0200079
0.0189498
0.0156107
0.0103713
0.00388779
-0.00283937
-0.00848667
-0.0117001
-0.0115672
-0.00791279
-0.00116135
0.00797438
0.0185112
0.0290478
0.0378375
0.0431587
0.0438135
0.0395462
0.0311996
0.0204704
0.00938291
-0.000244612
-0.00713214
-0.0106679
-0.0108916
-0.00826137
-0.00325402
0.00383607
0.0126723
0.0224115
0.031387
0.0373873
0.0386597
0.0349454
0.0276141
0.0187367
0.00985245
0.00133389
-0.0073087
-0.0165402
-0.0261179
-0.0351297
-0.0425696
-0.0478807
-0.0510844
-0.0525328
-0.0525325
-0.0510838
-0.04788
-0.0425692
-0.0351297
-0.0261183
-0.0165408
-0.0073093
0.00133331
0.00985176
0.0187357
0.0276129
0.0349439
0.038658
0.0373856
0.0313854
0.02241
0.0126708
0.00383461
-0.00325534
-0.00826234
-0.010892
-0.0106674
-0.00713056
-0.000242049
0.00938621
0.0204741
0.0312032
0.0395492
0.0438155
0.0431592
0.0378363
0.0290448
0.0185067
0.00796879
-0.00116747
-0.00791887
-0.0115727
-0.0117043
-0.00848922
-0.00284001
0.00388907
0.0103743
0.0156151
0.0189551
0.0200133
0.0187039
0.0152144
0.0099316
0.00345108
0.00296555
0.00848005
0.0128495
0.0155578
0.016238
0.0146705
0.0109895
0.00575074
-0.000221625
-0.00589031
-0.00999543
-0.0112558
-0.00882993
-0.00264842
0.00673841
0.0185112
0.0315972
0.0445016
0.0553669
0.0623079
0.0639049
0.0597325
0.0506938
0.0388342
0.0266783
0.0164657
0.00963968
0.00668819
0.00730509
0.0108448
0.016815
0.0249406
0.0347427
0.0450553
0.0538548
0.0586891
0.0577538
0.0509348
0.0399173
0.0272302
0.0149762
0.00409063
-0.0055293
-0.0142855
-0.0222162
-0.0289143
-0.0339179
-0.0371031
-0.0387668
-0.0394115
-0.0394114
-0.0387668
-0.0371034
-0.0339188
-0.028916
-0.0222183
-0.0142878
-0.00553129
0.004089
0.0149749
0.027229
0.0399161
0.0509337
0.0577527
0.0586883
0.0538542
0.0450548
0.0347422
0.0249399
0.0168143
0.0108441
0.00730466
0.00668829
0.00964053
0.0164673
0.0266807
0.0388372
0.0506972
0.0597358
0.0639076
0.0623096
0.055367
0.0445001
0.031594
0.0185067
0.00673295
-0.00265436
-0.00883575
-0.0112608
-0.0099992
-0.00589241
-0.00022188
0.00575231
0.0109926
0.0146748
0.0162428
0.0155624
0.0128534
0.00848261
0.00296646
0.00220025
0.00620654
0.00917401
0.010702
0.0104757
0.00826881
0.00428116
-0.000750966
-0.00585295
-0.0100105
-0.0121233
-0.0110751
-0.00613837
0.00266673
0.0147017
0.0290478
0.0445016
0.0594189
0.071821
0.0797395
0.0816792
0.0771822
0.0672693
0.0543069
0.041253
0.0307137
0.0242754
0.0222997
0.0241915
0.029053
0.0362941
0.0456116
0.0564096
0.0672844
0.0759573
0.0798043
0.0769667
0.0674021
0.0530153
0.0367303
0.0211941
0.00789954
-0.00289407
-0.0115734
-0.0184956
-0.0237449
-0.0273119
-0.0293515
-0.0302588
-0.0305349
-0.0305351
-0.0302594
-0.0293529
-0.0273141
-0.0237478
-0.018499
-0.0115767
-0.00289705
0.00789711
0.0211922
0.0367288
0.0530141
0.0674013
0.0769663
0.0798042
0.0759575
0.0672846
0.0564098
0.0456117
0.036294
0.0290527
0.0241913
0.0222997
0.0242757
0.0307145
0.0412544
0.054309
0.067272
0.0771853
0.0816822
0.0797419
0.0718223
0.0594189
0.0445001
0.0290448
0.0146974
0.00266157
-0.00614396
-0.0110805
-0.0121279
-0.0100138
-0.00585471
-0.000751012
0.00428276
0.00827174
0.0104794
0.0107058
0.00917733
0.0062088
0.00220106
0.00116709
0.0031318
0.00417831
0.00405092
0.00253182
-0.00056803
-0.00496152
-0.00973796
-0.0138002
-0.0162056
-0.0160789
-0.012532
-0.00498521
0.0064546
0.0210731
0.0378375
0.0553669
0.071821
0.0851101
0.0932868
0.0949528
0.0897731
0.0789425
0.0650893
0.0514847
0.040995
0.0353071
0.0346737
0.038235
0.044818
0.0536557
0.0643382
0.0761408
0.0874918
0.0959722
0.0988897
0.0943751
0.0824265
0.0650877
0.045591
0.02706
0.0114932
-0.000535392
-0.00943555
-0.0158844
-0.0203946
-0.0232945
-0.0248898
-0.0255679
-0.0257574
-0.0257579
-0.0255693
-0.0248922
-0.0232977
-0.0203983
-0.0158884
-0.00943941
-0.000538862
0.0114903
0.0270576
0.0455892
0.0650865
0.0824259
0.0943751
0.0988901
0.0959729
0.0874924
0.0761413
0.0643387
0.053656
0.0448182
0.0382352
0.0346738
0.0353072
0.0409953
0.0514853
0.0650905
0.0789443
0.0897756
0.0949556
0.0932896
0.0851125
0.0718223
0.055367
0.0378363
0.0210704
0.00645068
-0.00499004
-0.0125371
-0.0160838
-0.0162098
-0.0138033
-0.00973967
-0.00496172
-0.000566871
0.00253395
0.00405346
0.0041807
0.00313349
0.00116771
-0.000188992
-0.000901887
-0.00237694
-0.0046842
-0.0078911
-0.0121084
-0.0169658
-0.0214288
-0.0243455
-0.0249031
-0.0224939
-0.0164855
-0.00645522
0.00741194
0.0243345
0.0431587
0.0623079
0.0797395
0.0932868
0.101121
0.102085
0.0960858
0.0845121
0.0701578
0.0564511
0.0463885
0.0417148
0.0426229
0.0480705
0.0566402
0.0673311
0.0795301
0.0923351
0.10405
0.112227
0.114224
0.10823
0.0942832
0.0744977
0.0523159
0.0312389
0.0136904
0.000502222
-0.00877939
-0.0151188
-0.0193653
-0.0220679
-0.0235925
-0.0242835
-0.0245012
-0.0245018
-0.0242854
-0.0235955
-0.0220715
-0.0193694
-0.0151228
-0.00878326
0.000498671
0.0136873
0.0312362
0.0523138
0.0744965
0.0942828
0.108231
0.114224
0.112228
0.104051
0.0923357
0.0795306
0.0673317
0.0566408
0.0480711
0.0426234
0.041715
0.0463885
0.0564512
0.0701582
0.0845131
0.0960876
0.102087
0.101124
0.0932896
0.0797419
0.0623096
0.0431591
0.0243336
0.00740957
-0.00645884
-0.01649
-0.0224988
-0.0249078
-0.0243497
-0.0214321
-0.0169679
-0.0121093
-0.00789097
-0.00468339
-0.00237591
-0.000901054
-0.00018867
-0.00192195
-0.00603293
-0.0106525
-0.0156046
-0.0207546
-0.0261173
-0.0312891
-0.0352242
-0.0368371
-0.0355271
-0.0309838
-0.0228228
-0.0107529
0.0049941
0.0235986
0.0438135
0.0639049
0.0816792
0.0949528
0.102085
0.102234
0.0955941
0.083707
0.069403
0.056097
0.0467856
0.0432424
0.045676
0.0529833
0.0635756
0.0761873
0.0899081
0.103599
0.115478
0.12318
0.124245
0.116999
0.101509
0.0798856
0.05567
0.0326329
0.0135376
-0.000574328
-0.0102047
-0.0165619
-0.0207512
-0.0234525
-0.0250349
-0.025794
-0.0260526
-0.0260533
-0.0257961
-0.0250381
-0.0234563
-0.0207552
-0.0165657
-0.0102083
-0.000577682
0.0135345
0.0326302
0.0556679
0.0798843
0.101509
0.117
0.124246
0.123181
0.115478
0.1036
0.0899086
0.0761879
0.0635763
0.0529841
0.0456767
0.0432428
0.0467857
0.0560969
0.0694029
0.0837073
0.0955952
0.102236
0.102087
0.0949556
0.0816822
0.0639076
0.0438155
0.0235994
0.00499344
-0.010755
-0.0228262
-0.0309881
-0.0355319
-0.0368421
-0.0352289
-0.0312932
-0.0261204
-0.0207568
-0.0156059
-0.0106532
-0.00603323
-0.00192202
-0.00399627
-0.0121362
-0.0203872
-0.0282622
-0.0353884
-0.0416961
-0.0468348
-0.0498958
-0.0500098
-0.0468777
-0.0405036
-0.0307189
-0.0173139
-0.000517136
0.0188627
0.0395462
0.0597325
0.0771822
0.0897731
0.0960858
0.0955941
0.0887433
0.077148
0.0635375
0.0511569
0.0428896
0.0405163
0.0443359
0.0533049
0.0657454
0.0801149
0.0951317
0.109377
0.121031
0.127951
0.127995
0.119703
0.103147
0.0803372
0.054801
0.0304796
0.0104078
-0.00419436
-0.0138738
-0.0200573
-0.0240708
-0.02669
-0.0282606
-0.0290245
-0.0292831
-0.0292838
-0.0290265
-0.0282635
-0.0266935
-0.0240745
-0.0200609
-0.0138771
-0.00419734
0.0104051
0.0304772
0.0547991
0.080336
0.103147
0.119704
0.127996
0.127952
0.121032
0.109377
0.095132
0.0801153
0.065746
0.0533056
0.0443367
0.040517
0.04289
0.0511571
0.0635375
0.0771481
0.0887438
0.0955952
0.0960876
0.0897756
0.0771853
0.0597358
0.0395492
0.0188649
-0.000516129
-0.0173143
-0.0307208
-0.0405069
-0.0468822
-0.0500151
-0.0499015
-0.0468405
-0.0417014
-0.035393
-0.0282659
-0.0203899
-0.0121377
-0.00399681
-0.00623312
-0.0186794
-0.0307157
-0.0415061
-0.0504373
-0.0573886
-0.0621485
-0.0640731
-0.0626234
-0.0578551
-0.0500737
-0.0392794
-0.0252931
-0.00829829
0.0109484
0.0311996
0.0506938
0.0672693
0.0789425
0.0845121
0.083707
0.077148
0.0664383
0.0541052
0.0431151
0.0361545
0.0349843
0.0400324
0.0503949
0.064367
0.0801293
0.0959855
0.110222
0.12105
0.126682
0.125442
0.116158
0.0988852
0.0754494
0.0492649
0.0243665
0.00400768
-0.0104416
-0.0195813
-0.0250596
-0.028434
-0.0305895
-0.031855
-0.0324213
-0.0325747
-0.0325752
-0.0324228
-0.0318573
-0.0305923
-0.0284371
-0.0250625
-0.019584
-0.010444
0.00400549
0.0243646
0.0492634
0.0754484
0.0988847
0.116158
0.125442
0.126682
0.12105
0.110222
0.0959856
0.0801295
0.0643675
0.0503956
0.0400332
0.0349851
0.0361553
0.0431156
0.0541055
0.0664384
0.0771481
0.0837074
0.0845131
0.0789444
0.067272
0.0506972
0.0312032
0.0109517
-0.00829587
-0.025292
-0.0392798
-0.0500759
-0.0578589
-0.0626287
-0.0640795
-0.0621556
-0.0573959
-0.0504442
-0.041512
-0.0307202
-0.0186823
-0.00623412
-0.00830632
-0.0247161
-0.040168
-0.0535035
-0.0639118
-0.0712643
-0.0755376
-0.0764027
-0.0736702
-0.0677174
-0.0590838
-0.0478755
-0.0339102
-0.0173167
0.00120498
0.0204704
0.0388342
0.0543069
0.0650893
0.0701578
0.069403
0.0635375
0.0541052
0.0434006
0.0340742
0.0285697
0.0285864
0.0346687
0.0460772
0.0611191
0.0777171
0.0937597
0.107254
0.116503
0.120184
0.1172
0.106746
0.0888781
0.0651976
0.0389482
0.014193
-0.00566268
-0.0191578
-0.0269827
-0.0310243
-0.0330838
-0.0341732
-0.0346318
-0.0346346
-0.0344883
-0.0344886
-0.0346355
-0.0346332
-0.034175
-0.033086
-0.0310264
-0.0269847
-0.0191596
-0.00566432
0.0141916
0.038947
0.0651967
0.0888776
0.106746
0.1172
0.120183
0.116503
0.107253
0.0937597
0.0777173
0.0611195
0.0460777
0.0346695
0.0285874
0.0285708
0.0340753
0.0434013
0.0541055
0.0635375
0.069403
0.0701582
0.0650905
0.054309
0.0388372
0.0204741
0.0012088
-0.0173133
-0.0339078
-0.0478746
-0.0590848
-0.0677204
-0.0736752
-0.0764093
-0.0755456
-0.071273
-0.0639204
-0.0535113
-0.0401742
-0.0247201
-0.00830772
-0.0098302
-0.0291362
-0.0470473
-0.0621825
-0.0736202
-0.0812653
-0.0852753
-0.0855885
-0.0822727
-0.0758953
-0.0671012
-0.056023
-0.0424587
-0.0265079
-0.00884867
0.00938291
0.0266783
0.041253
0.0514847
0.0564511
0.056097
0.0511569
0.0431151
0.0340742
0.0263999
0.0222785
0.0232931
0.0300487
0.0419573
0.0573756
0.0740265
0.089437
0.101377
0.108283
0.109334
0.10407
0.0921188
0.0736012
0.0499284
0.0241523
0.000287862
-0.018224
-0.0299466
-0.0357279
-0.0376912
-0.0378358
-0.0372663
-0.0363532
-0.0353327
-0.0346261
-0.0346263
-0.0353333
-0.036354
-0.0372673
-0.0378369
-0.0376923
-0.0357291
-0.0299478
-0.0182252
0.000286757
0.0241514
0.0499276
0.0736007
0.0921182
0.104069
0.109333
0.108282
0.101377
0.0894369
0.0740267
0.0573759
0.0419577
0.0300492
0.023294
0.0222797
0.0264012
0.0340753
0.0431157
0.0511571
0.0560969
0.0564512
0.0514853
0.0412544
0.0266807
0.00938622
-0.00884484
-0.026504
-0.0424555
-0.0560212
-0.0671012
-0.0758975
-0.0822771
-0.085595
-0.0852836
-0.0812747
-0.0736299
-0.0621915
-0.0470546
-0.029141
-0.00983187
-0.0105191
-0.0311224
-0.0501163
-0.0660511
-0.0780026
-0.0859345
-0.0901279
-0.0906678
-0.0877129
-0.0818325
-0.0736158
-0.0631375
-0.0501709
-0.0348259
-0.0178082
-0.000244612
0.0164657
0.0307137
0.040995
0.0463885
0.0467856
0.0428896
0.0361545
0.0285697
0.0222785
0.0192104
0.0207709
0.0275549
0.0391104
0.0539076
0.0695854
0.0834223
0.0930181
0.0969447
0.094853
0.0868966
0.0731749
0.0539622
0.0305549
0.00580936
-0.0164144
-0.0328123
-0.0421331
-0.045452
-0.0450764
-0.0430744
-0.0405333
-0.0378458
-0.0354075
-0.0338947
-0.0338948
-0.0354078
-0.0378463
-0.0405338
-0.0430748
-0.0450768
-0.0454524
-0.0421337
-0.0328132
-0.0164153
0.00580864
0.0305544
0.0539618
0.0731745
0.0868959
0.0948521
0.0969438
0.0930175
0.0834221
0.0695856
0.0539078
0.0391106
0.0275551
0.0207714
0.0192113
0.0222797
0.0285709
0.0361554
0.0428901
0.0467857
0.0463885
0.0409953
0.0307145
0.0164673
-0.000242037
-0.0178049
-0.0348223
-0.0501676
-0.0631353
-0.0736153
-0.0818341
-0.0877168
-0.0906739
-0.090136
-0.0859439
-0.0780125
-0.0660604
-0.050124
-0.0311275
-0.0105209
-0.0103048
-0.030484
-0.0490991
-0.0647934
-0.0767397
-0.0849636
-0.0897836
-0.091289
-0.0895585
-0.0849857
-0.0779619
-0.0684351
-0.056154
-0.0412693
-0.0245458
-0.00713214
0.00963968
0.0242754
0.0353071
0.0417148
0.0432424
0.0405163
0.0349843
0.0285864
0.0232931
0.0207709
0.0221915
0.0280841
0.0381435
0.051059
0.0645534
0.075815
0.0823563
0.0828681
0.0773837
0.0665878
0.0510446
0.0312532
0.00846744
-0.0146697
-0.0345887
-0.0483206
-0.0549602
-0.0558468
-0.0533643
-0.0494625
-0.0450563
-0.0405199
-0.0364895
-0.0340334
-0.0340335
-0.0364899
-0.0405203
-0.0450566
-0.0494626
-0.0533643
-0.0558468
-0.0549604
-0.048321
-0.0345893
-0.0146701
0.00846721
0.0312531
0.0510445
0.0665874
0.0773831
0.0828673
0.0823557
0.0758147
0.0645534
0.0510591
0.0381435
0.0280841
0.0221916
0.0207714
0.023294
0.0285874
0.0349852
0.040517
0.0432428
0.0417151
0.0353072
0.0242757
0.00964054
-0.00713055
-0.0245435
-0.0412664
-0.0561512
-0.068433
-0.0779612
-0.0849868
-0.0895617
-0.0912944
-0.089791
-0.0849723
-0.0767489
-0.0648021
-0.0491064
-0.0304888
-0.0103065
-0.00933886
-0.0276616
-0.0446814
-0.0592628
-0.0707445
-0.0791963
-0.0848869
-0.0877934
-0.0877966
-0.0850033
-0.079521
-0.071134
-0.059569
-0.0450288
-0.0283376
-0.0106679
0.00668819
0.0222997
0.0346737
0.0426229
0.045676
0.0443359
0.0400324
0.0346687
0.0300487
0.0275549
0.0280841
0.0320747
0.0394053
0.0491088
0.0591773
0.0668848
0.0697517
0.0665705
0.057656
0.0441117
0.0269189
0.00682799
-0.0149141
-0.0359193
-0.0530487
-0.0638469
-0.0678739
-0.066722
-0.062717
-0.0575056
-0.0516836
-0.0455513
-0.0400209
-0.0366349
-0.036635
-0.0400212
-0.0455516
-0.0516839
-0.0575058
-0.0627171
-0.0667219
-0.0678739
-0.0638469
-0.0530488
-0.0359193
-0.0149141
0.00682812
0.026919
0.0441116
0.0576556
0.06657
0.0697512
0.0668845
0.0591771