/*--------------------------------*- C++ -*----------------------------------*\
  =========                 |
  \\      /  F ield         | OpenFOAM: The Open Source CFD Toolbox
   \\    /   O peration     | Website:  https://openfoam.org
    \\  /    A nd           | Version:  10
     \\/     M anipulation  |
\*---------------------------------------------------------------------------*/
FoamFile
{
    format      ascii;
    class       volScalarField;
    location    "13";
    object      h_0;
}
// * * * * * * * * * * * * * * * * * * * * * * * * * * * * * * * * * * * * * //

dimensions      [0 1 0 0 0 0 0];

internalField   nonuniform List<scalar> 
10000
(
1.48738e-14
8.90839e-14
4.16898e-13
1.85796e-12
7.93328e-12
3.24339e-11
1.26845e-10
4.7409e-10
1.69183e-09
5.75913e-09
1.86838e-08
5.77169e-08
1.69636e-07
4.74015e-07
1.25849e-06
3.17304e-06
7.59501e-06
1.72566e-05
3.72224e-05
7.62516e-05
0.000148454
0.000274964
0.000485162
0.000816851
0.00131488
0.00202796
0.00300379
0.00428314
0.00589373
0.00784475
0.010123
0.012691
0.0154879
0.0184324
0.0214289
0.0243748
0.0271695
0.0297231
0.0319642
0.0338454
0.0353458
0.0364711
0.0372506
0.0377318
0.0379749
0.0380456
0.0380091
0.0379243
0.0378393
0.037788
0.0377881
0.0378395
0.0379246
0.0380096
0.0380462
0.0379756
0.0377325
0.0372513
0.0364719
0.0353465
0.033846
0.0319647
0.0297235
0.0271697
0.0243749
0.0214288
0.0184322
0.0154876
0.0126906
0.0101225
0.00784427
0.00589326
0.00428271
0.00300341
0.00202765
0.00131464
0.000816672
0.000485035
0.00027488
0.000148401
7.62198e-05
3.72044e-05
1.7247e-05
7.59024e-06
3.17078e-06
1.25748e-06
4.7359e-07
1.69467e-07
5.76529e-08
1.86609e-08
5.75137e-09
1.68933e-09
4.73325e-10
1.26622e-10
3.23721e-11
7.91693e-12
1.85383e-12
4.159e-13
8.88553e-14
1.48333e-14
8.90839e-14
5.27067e-13
2.42803e-12
1.06436e-11
4.46813e-11
1.79509e-10
6.89542e-10
2.53006e-09
8.85891e-09
2.95733e-08
9.40351e-08
2.84558e-07
8.18825e-07
2.2389e-06
5.81347e-06
1.43283e-05
3.35113e-05
7.43703e-05
0.000156643
0.000313285
0.00059545
0.00107679
0.00185543
0.00305193
0.004802
0.00724403
0.0105027
0.0146708
0.0197927
0.0258509
0.032759
0.0403608
0.048438
0.0567242
0.0649256
0.0727459
0.0799123
0.0861997
0.0914493
0.0955793
0.098587
0.100543
0.101578
0.101866
0.101607
0.101005
0.100257
0.0995325
0.0989702
0.0986647
0.0986649
0.0989707
0.0995335
0.100258
0.101007
0.101608
0.101868
0.10158
0.100545
0.0985891
0.0955813
0.0914511
0.0862011
0.0799133
0.0727465
0.0649258
0.0567239
0.0484373
0.0403598
0.0327578
0.0258497
0.0197915
0.0146696
0.0105016
0.0072431
0.00480124
0.00305135
0.00185501
0.0010765
0.00059526
0.000313168
0.000156575
7.43333e-05
3.34921e-05
1.4319e-05
5.8092e-06
2.23705e-06
8.1807e-07
2.84266e-07
9.39283e-08
2.95362e-08
8.84672e-09
2.52625e-09
6.8841e-10
1.79189e-10
4.45949e-11
1.06213e-11
2.42256e-12
5.25793e-13
8.88551e-14
4.16898e-13
2.42803e-12
1.09585e-11
4.70115e-11
1.92988e-10
7.57599e-10
2.84124e-09
1.01695e-08
3.47041e-08
1.12803e-07
3.48905e-07
1.02599e-06
2.86592e-06
7.59885e-06
1.9113e-05
4.5584e-05
0.000103061
0.000220894
0.00044896
0.000865852
0.00158608
0.00276338
0.00458713
0.00726966
0.0110246
0.0160388
0.0224423
0.0302809
0.0394971
0.0499209
0.061272
0.0731749
0.0851852
0.0968249
0.107625
0.117166
0.12512
0.131274
0.135547
0.137987
0.138757
0.138111
0.136366
0.133868
0.130968
0.127997
0.125249
0.122967
0.121341
0.120496
0.120496
0.121341
0.122969
0.12525
0.127999
0.130971
0.133871
0.136369
0.138115
0.13876
0.13799
0.13555
0.131277
0.125122
0.117168
0.107626
0.0968256
0.0851852
0.0731743
0.0612709
0.0499195
0.0394955
0.0302791
0.0224406
0.0160373
0.0110233
0.00726857
0.00458629
0.00276277
0.00158566
0.00086558
0.000448794
0.000220799
0.00010301
4.55581e-05
1.91006e-05
7.59326e-06
2.86355e-06
1.02504e-06
3.48546e-07
1.12675e-07
3.46604e-08
1.01555e-08
2.83695e-09
7.56352e-10
1.92642e-10
4.69204e-11
1.09356e-11
2.42256e-12
4.15899e-13
1.85796e-12
1.06436e-11
4.70115e-11
1.97115e-10
7.90179e-10
3.0264e-09
1.10629e-08
3.85565e-08
1.27982e-07
4.04171e-07
1.21314e-06
3.45748e-06
9.34822e-06
2.39593e-05
5.81727e-05
0.00013374
0.000291076
0.000599761
0.00117043
0.00216491
0.00379986
0.00633886
0.0100699
0.0152689
0.0221551
0.0308461
0.0413223
0.0534066
0.0667619
0.0809076
0.0952519
0.109138
0.121903
0.132936
0.141744
0.147994
0.151544
0.152444
0.150923
0.147345
0.14217
0.135899
0.129033
0.122042
0.11534
0.109273
0.104116
0.10008
0.0973109
0.0959039
0.095904
0.0973113
0.10008
0.104117
0.109274
0.115342
0.122045
0.129036
0.135902
0.142174
0.147349
0.150927
0.152448
0.151548
0.147998
0.141748
0.132939
0.121905
0.109139
0.0952521
0.0809071
0.0667607
0.053405
0.0413204
0.0308441
0.0221532
0.0152673
0.0100685
0.00633777
0.00379906
0.00216436
0.00117007
0.000599545
0.000290953
0.000133675
5.81398e-05
2.39439e-05
9.34137e-06
3.45463e-06
1.21202e-06
4.03755e-07
1.27836e-07
3.8508e-08
1.10476e-08
3.02182e-09
7.88877e-10
1.96762e-10
4.69204e-11
1.06213e-11
1.85382e-12
7.93328e-12
4.46813e-11
1.92988e-10
7.90179e-10
3.09025e-09
1.15352e-08
4.10532e-08
1.39143e-07
4.48623e-07
1.37441e-06
3.99661e-06
1.10193e-05
2.87796e-05
7.11401e-05
0.00016632
0.000367587
0.000767832
0.00151601
0.00283053
0.00500211
0.008378
0.0133232
0.0201616
0.0291071
0.0402021
0.0532768
0.0679378
0.0835872
0.0994673
0.114723
0.128477
0.139916
0.148372
0.153394
0.154802
0.152695
0.14743
0.139564
0.129774
0.118782
0.107279
0.0958702
0.0850488
0.075183
0.066525
0.0592283
0.0533724
0.0489861
0.0460708
0.0446169
0.0446168
0.0460706
0.0489859
0.0533721
0.0592282
0.066525
0.0751833
0.0850495
0.0958715
0.107281
0.118785
0.129777
0.139568
0.147435
0.1527
0.154807
0.153399
0.148376
0.13992
0.12848
0.114724
0.0994678
0.0835868
0.0679366
0.0532752
0.0402002
0.029105
0.0201597
0.0133216
0.00837666
0.00500111
0.00282984
0.00151556
0.00076756
0.000367434
0.000166239
7.11002e-05
2.87611e-05
1.10112e-05
3.99331e-06
1.37314e-06
4.48162e-07
1.38985e-07
4.10015e-08
1.15193e-08
3.08557e-09
7.88877e-10
1.92642e-10
4.45949e-11
7.91691e-12
3.24339e-11
1.79509e-10
7.57599e-10
3.0264e-09
1.15352e-08
4.19202e-08
1.45079e-07
4.77578e-07
1.49352e-06
4.43176e-06
1.2463e-05
3.31787e-05
8.35265e-05
0.000198661
0.000446062
0.000945013
0.00188858
0.00356076
0.00633714
0.010657
0.0169606
0.0255975
0.0367271
0.0502396
0.0657192
0.0824605
0.0995303
0.115858
0.130338
0.141941
0.149815
0.153389
0.152442
0.147143
0.138027
0.125914
0.1118
0.0967146
0.0816073
0.0672561
0.0542226
0.0428443
0.033259
0.0254472
0.0192816
0.014575
0.0111206
0.00872299
0.00722047
0.00649861
0.00649841
0.00721988
0.00872202
0.0111192
0.0145734
0.0192798
0.0254452
0.0332571
0.0428426
0.0542213
0.0672555
0.0816075
0.0967159
0.111802
0.125918
0.138031
0.147148
0.152447
0.153394
0.14982
0.141945
0.130341
0.115859
0.0995309
0.0824601
0.0657179
0.0502378
0.0367251
0.0255953
0.0169587
0.0106555
0.00633595
0.00355992
0.00188804
0.000944686
0.000445879
0.000198566
8.34799e-05
3.31574e-05
1.24539e-05
4.42811e-06
1.49214e-06
4.77087e-07
1.44914e-07
4.18674e-08
1.15193e-08
3.02182e-09
7.56352e-10
1.79189e-10
3.2372e-11
1.26845e-10
6.89542e-10
2.84124e-09
1.10629e-08
4.10532e-08
1.45079e-07
4.87636e-07
1.55686e-06
4.71506e-06
1.3528e-05
3.67216e-05
9.41902e-05
0.000228021
0.000520446
0.00111902
0.00226515
0.00431553
0.00773949
0.0130739
0.0208273
0.0313449
0.044671
0.0604555
0.0779406
0.0960326
0.113434
0.128799
0.140877
0.148642
0.151399
0.148878
0.141293
0.129343
0.114131
0.0970137
0.0794002
0.0625627
0.0474885
0.0348059
0.0247801
0.0173672
0.0122978
0.00916973
0.00753021
0.0069378
0.00700239
0.00740493
0.00790223
0.0083228
0.00855885
0.00855873
0.00832242
0.00790156
0.00740393
0.007001
0.00693597
0.00752791
0.00916698
0.0122946
0.0173638
0.0247767
0.0348028
0.047486
0.0625611
0.0793999
0.0970148
0.114134
0.129347
0.141298
0.148883
0.151404
0.148647
0.140881
0.128802
0.113436
0.0960331
0.07794
0.060454
0.044669
0.0313427
0.0208252
0.0130722
0.00773811
0.00431455
0.00226451
0.00111864
0.000520235
0.000227912
9.41379e-05
3.66982e-05
1.35182e-05
4.71118e-06
1.55542e-06
4.87134e-07
1.44914e-07
4.10015e-08
1.10476e-08
2.83695e-09
6.8841e-10
1.26622e-10
4.7409e-10
2.53006e-09
1.01695e-08
3.85565e-08
1.39143e-07
4.77578e-07
1.55686e-06
4.81342e-06
1.40938e-05
3.90243e-05
0.000102034
0.000251564
0.000584073
0.00127552
0.00261748
0.00504369
0.00912311
0.0154931
0.0247203
0.037111
0.052528
0.0702928
0.0892222
0.107796
0.124391
0.137513
0.145961
0.148938
0.146122
0.137723
0.124514
0.107782
0.089186
0.0705048
0.0533594
0.0389708
0.0280268
0.020672
0.0166023
0.0152181
0.0157883
0.0175887
0.0199969
0.0225393
0.0248995
0.0268998
0.0284675
0.0295983
0.0303212
0.0306716
0.0306717
0.0303216
0.0295988
0.0284681
0.0269004
0.0249
0.0225394
0.0199965
0.0175877
0.0157865
0.0152155
0.016599
0.0206682
0.0280229
0.0389673
0.0533567
0.0705035
0.0891862
0.107784
0.124517
0.137728
0.146127
0.148943
0.145966
0.137517
0.124394
0.107797
0.0892224
0.0702919
0.0525262
0.0371088
0.0247181
0.0154911
0.00912156
0.00504258
0.00261676
0.0012751
0.000583838
0.000251444
0.000101978
3.89995e-05
1.40836e-05
4.80947e-06
1.55542e-06
4.77087e-07
1.38985e-07
3.8508e-08
1.01555e-08
2.52625e-09
4.73324e-10
1.69183e-09
8.85891e-09
3.47041e-08
1.27982e-07
4.48623e-07
1.49352e-06
4.71506e-06
1.40938e-05
3.98232e-05
0.000106194
0.00026682
0.000630655
0.00140012
0.00291572
0.0056889
0.010391
0.0177607
0.0284136
0.0425841
0.0598922
0.0792527
0.0989992
0.117195
0.132008
0.141999
0.14627
0.14448
0.136822
0.124028
0.107368
0.088583
0.0696783
0.052584
0.0387894
0.029086
0.0235022
0.0214285
0.0218639
0.0236908
0.0259041
0.0277532
0.0287942
0.0288709
0.0280539
0.026563
0.0246931
0.0227549
0.0210312
0.01975
0.0190694
0.0190697
0.0197508
0.0210324
0.0227566
0.0246952
0.0265655
0.0280567
0.0288737
0.0287968
0.0277554
0.0259055
0.0236911
0.021863
0.0214264
0.0234991
0.0290824
0.0387859
0.0525812
0.0696768
0.088583
0.10737
0.124032
0.136826
0.144484
0.146275
0.142004
0.132012
0.117198
0.0990004
0.0792524
0.0598908
0.0425819
0.0284113
0.0177586
0.0103893
0.00568769
0.00291493
0.00139966
0.000630403
0.000266693
0.000106136
3.97978e-05
1.40836e-05
4.71118e-06
1.49214e-06
4.48162e-07
1.27836e-07
3.46604e-08
8.84672e-09
1.68933e-09
5.75913e-09
2.95733e-08
1.12803e-07
4.04171e-07
1.37441e-06
4.43176e-06
1.3528e-05
3.90243e-05
0.000106194
0.000272104
0.00065529
0.00148048
0.00313239
0.00619667
0.0114461
0.0197216
0.0316826
0.04747
0.0664147
0.0869668
0.10695
0.12407
0.136454
0.142978
0.143291
0.137647
0.126734
0.111622
0.0938021
0.0751623
0.0577559
0.0433695
0.0330703
0.0269571
0.0242278
0.0235097
0.0232899
0.0222904
0.019691
0.015185
0.00890559
0.00128681
-0.00708829
-0.0156134
-0.0237435
-0.0310383
-0.0371722
-0.0419236
-0.045154
-0.0467861
-0.0467861
-0.0451538
-0.0419232
-0.0371716
-0.0310374
-0.0237421
-0.0156114
-0.00708563
0.0012901
0.00890938
0.015189
0.0196949
0.0222937
0.0232922
0.0235106
0.0242272
0.0269551
0.0330677
0.0433668
0.0577538
0.0751613
0.0938025
0.111624
0.126737
0.137651
0.143295
0.142983
0.136459
0.124073
0.106952
0.0869672
0.0664137
0.0474681
0.0316803
0.0197194
0.0114443
0.00619537
0.00313156
0.00147999
0.000655029
0.000271976
0.000106136
3.89995e-05
1.35182e-05
4.42811e-06
1.37314e-06
4.03755e-07
1.12675e-07
2.95362e-08
5.75135e-09
1.86838e-08
9.40351e-08
3.48905e-07
1.21314e-06
3.99661e-06
1.2463e-05
3.67216e-05
0.000102034
0.00026682
0.00065529
0.00150824
0.00324644
0.00652153
0.012203
0.0212354
0.034326
0.0515189
0.0718345
0.0932278
0.113011
0.128619
0.138337
0.141603
0.138792
0.130744
0.118397
0.102768
0.0851544
0.0672704
0.0510341
0.0380094
0.0288145
0.0228788
0.0187037
0.0144604
0.00860681
0.000280767
-0.0106066
-0.02352
-0.0375685
-0.0517773
-0.0652905
-0.0774821
-0.087983
-0.0966515
-0.103515
-0.108702
-0.112387
-0.114734
-0.115873
-0.115873
-0.114735
-0.112388
-0.108704
-0.103517
-0.0966533
-0.0879846
-0.0774833
-0.065291
-0.0517768
-0.037567
-0.0235173
-0.010603
0.000284778
0.00861068
0.0144635
0.0187054
0.022879
0.0288136
0.0380078
0.0510326
0.0672696
0.0851545
0.102769
0.118399
0.130746
0.138796
0.141607
0.138341
0.128623
0.113014
0.0932289
0.0718339
0.0515171
0.0343237
0.0212331
0.0122012
0.00652018
0.00324558
0.00150774
0.000655029
0.000266693
0.000101978
3.66982e-05
1.24539e-05
3.99331e-06
1.21202e-06
3.48546e-07
9.39283e-08
1.86608e-08
5.77169e-08
2.84558e-07
1.02599e-06
3.45748e-06
1.10193e-05
3.31787e-05
9.41902e-05
0.000251564
0.000630655
0.00148048
0.00324644
0.00663333
0.0125984
0.0221911
0.0361819
0.054539
0.0759849
0.0979777
0.117332
0.131293
0.138478
0.139088
0.134299
0.125349
0.113009
0.0977402
0.0802684
0.0620145
0.0449008
0.0305518
0.0194289
0.0105533
0.00202772
-0.00801741
-0.0206402
-0.0358062
-0.0525831
-0.0695885
-0.0854548
-0.0991504
-0.110114
-0.118236
-0.123753
-0.127106
-0.128822
-0.129422
-0.12936
-0.129005
-0.128623
-0.12839
-0.12839
-0.128624
-0.129006
-0.129362
-0.129424
-0.128825
-0.127109
-0.123757
-0.11824
-0.110118
-0.0991538
-0.0854572
-0.0695896
-0.0525826
-0.0358043
-0.0206372
-0.00801428
0.00203028
0.0105548
0.0194292
0.0305514
0.0449005
0.0620147
0.0802692
0.0977415
0.113011
0.125351
0.134302
0.139091
0.138482
0.131297
0.117335
0.0979793
0.0759846
0.0545374
0.0361796
0.0221887
0.0125965
0.00663196
0.00324558
0.00147999
0.000630403
0.000251444
9.41379e-05
3.31574e-05
1.10112e-05
3.45463e-06
1.02504e-06
2.84266e-07
5.76528e-08
1.69636e-07
8.18825e-07
2.86592e-06
9.34822e-06
2.87796e-05
8.35265e-05
0.000228021
0.000584073
0.00140012
0.00313239
0.00652153
0.0125984
0.0225177
0.0371383
0.0564003
0.0787784
0.101264
0.120186
0.132642
0.13769
0.136413
0.130759
0.122069
0.110449
0.0953485
0.0767643
0.0560463
0.0356246
0.0177474
0.00313226
-0.00940054
-0.022021
-0.0364469
-0.0530042
-0.0706331
-0.0875408
-0.101976
-0.112775
-0.11955
-0.122589
-0.12261
-0.120503
-0.117131
-0.113212
-0.109283
-0.105706
-0.102702
-0.100391
-0.0988325
-0.0980496
-0.0980497
-0.0988327
-0.100391
-0.102702
-0.105707
-0.109284
-0.113214
-0.117133
-0.120507
-0.122614
-0.122594
-0.119555
-0.11278
-0.10198
-0.0875436
-0.0706342
-0.0530037
-0.0364454
-0.0220192
-0.00939941
0.00313254
0.0177473
0.0356249
0.0560475
0.0767664
0.0953508
0.110451
0.122071
0.130761
0.136416
0.137694
0.132646
0.120189
0.101266
0.0787784
0.0563987
0.037136
0.0225154
0.0125965
0.00652018
0.00313156
0.00139966
0.000583838
0.000227912
8.34799e-05
2.87611e-05
9.34137e-06
2.86355e-06
8.1807e-07
1.69466e-07
4.74015e-07
2.2389e-06
7.59885e-06
2.39593e-05
7.11401e-05
0.000198661
0.000520446
0.00127552
0.00291572
0.00619667
0.012203
0.0221911
0.0371383
0.0570286
0.0801798
0.103179
0.121876
0.133193
0.136629
0.134178
0.128485
0.120694
0.109798
0.0939571
0.0725766
0.0474645
0.0222418
0.000327904
-0.0171005
-0.0315697
-0.0457906
-0.0614728
-0.078219
-0.0940557
-0.10675
-0.114846
-0.118049
-0.117054
-0.11309
-0.107459
-0.101247
-0.0952072
-0.0897635
-0.0850991
-0.081244
-0.0781557
-0.0757697
-0.0740274
-0.0728869
-0.0723223
-0.0723223
-0.0728869
-0.0740275
-0.0757697
-0.0781557
-0.0812441
-0.0850993
-0.0897639
-0.0952079
-0.101249
-0.107461
-0.113093
-0.117059
-0.118054
-0.114851
-0.106754
-0.0940591
-0.0782207
-0.061473
-0.0457902
-0.0315697
-0.0171013
0.000326914
0.0222418
0.0474662
0.0725798
0.0939607
0.1098
0.120696
0.128487
0.13418
0.136632
0.133197
0.12188
0.103182
0.08018
0.0570271
0.037136
0.0221887
0.0122012
0.00619537
0.00291493
0.0012751
0.000520235
0.000198566
7.11002e-05
2.39439e-05
7.59326e-06
2.23705e-06
4.73589e-07
1.25849e-06
5.81347e-06
1.9113e-05
5.81727e-05
0.00016632
0.000446062
0.00111902
0.00261748
0.0056889
0.0114461
0.0212354
0.0361819
0.0564003
0.0801798
0.103807
0.122652
0.133354
0.135729
0.132619
0.127316
0.120578
0.110002
0.0923848
0.0668945
0.0364393
0.00637814
-0.0184878
-0.0367088
-0.050649
-0.0640686
-0.0788874
-0.093918
-0.106257
-0.113544
-0.115131
-0.1119
-0.105532
-0.0977317
-0.0897367
-0.08222
-0.0754144
-0.0692982
-0.0637723
-0.0587625
-0.0542538
-0.0502952
-0.0469689
-0.044371
-0.0425862
-0.0416776
-0.0416777
-0.0425864
-0.0443713
-0.0469693
-0.0502957
-0.0542544
-0.0587632
-0.0637731
-0.0692989
-0.0754151
-0.0822208
-0.0897379
-0.0977336
-0.105535
-0.111904
-0.115136
-0.11355
-0.106261
-0.093921
-0.0788886
-0.064069
-0.05065
-0.0367109
-0.0184903
0.00637696
0.0364407
0.0668983
0.0923896
0.110006
0.12058
0.127317
0.13262
0.135732
0.133358
0.122656
0.10381
0.08018
0.0563987
0.0361796
0.0212331
0.0114443
0.00568769
0.00261676
0.00111864
0.000445879
0.000166239
5.81398e-05
1.91006e-05
5.8092e-06
1.25748e-06
3.17304e-06
1.43283e-05
4.5584e-05
0.00013374
0.000367587
0.000945013
0.00226515
0.00504369
0.010391
0.0197216
0.034326
0.054539
0.0787784
0.103179
0.122652
0.13338
0.135229
0.131739
0.126865
0.121018
0.110336
0.090291
0.0602005
0.0245806
-0.00929702
-0.0355041
-0.0527489
-0.0646722
-0.076391
-0.0899877
-0.10312
-0.111681
-0.113358
-0.108727
-0.0999546
-0.0892993
-0.0783478
-0.0677961
-0.05773
-0.0480406
-0.0386594
-0.0296478
-0.0211959
-0.0135238
-0.00683073
-0.00124854
0.00316983
0.00642557
0.00855904
0.0096116
0.00961178
0.00855955
0.00642636
0.00317081
-0.0012475
-0.00682975
-0.0135231
-0.0211954
-0.0296477
-0.0386596
-0.0480411
-0.0577307
-0.0677971
-0.0783491
-0.0893014
-0.0999579
-0.108732
-0.113364
-0.111687
-0.103124
-0.0899897
-0.0763917
-0.0646735
-0.0527519
-0.0355081
-0.00929967
0.0245811
0.0602044
0.0902966
0.110341
0.12102
0.126866
0.13174
0.135232
0.133384
0.122656
0.103182
0.0787784
0.0545374
0.0343237
0.0197194
0.0103893
0.00504258
0.00226451
0.000944686
0.000367434
0.000133675
4.55581e-05
1.4319e-05
3.17078e-06
7.59501e-06
3.35113e-05
0.000103061
0.000291076
0.000767832
0.00188858
0.00431553
0.00912311
0.0177607
0.0316826
0.0515189
0.0759849
0.101264
0.121876
0.133354
0.135229
0.131459
0.126752
0.12148
0.110514
0.0880419
0.0536938
0.0138136
-0.0226119
-0.0491063
-0.0648623
-0.0746712
-0.0847791
-0.0971787
-0.108022
-0.111845
-0.106731
-0.0951298
-0.0807345
-0.065972
-0.0518973
-0.0387043
-0.0262659
-0.0146798
-0.00430589
0.00445379
0.0112813
0.0160699
0.0189758
0.020308
0.0205089
0.0200231
0.0192675
0.0185725
0.0181671
0.0181674
0.0185734
0.0192691
0.0200252
0.0205117
0.0203112
0.0189795
0.0160737
0.0112851
0.0044572
-0.00430305
-0.0146777
-0.0262645
-0.0387035
-0.0518971
-0.0659726
-0.0807364
-0.0951335
-0.106737
-0.111852
-0.108027
-0.0971815
-0.0847801
-0.0746727
-0.0648659
-0.0491112
-0.0226158
0.013813
0.0536973
0.088048
0.11052
0.121483
0.126753
0.13146
0.135232
0.133358
0.12188
0.101266
0.0759846
0.0515171
0.0316803
0.0177586
0.00912156
0.00431455
0.00188804
0.00076756
0.000290953
0.00010301
3.34921e-05
7.59022e-06
1.72566e-05
7.43703e-05
0.000220894
0.000599761
0.00151601
0.00356076
0.00773949
0.0154931
0.0284136
0.04747
0.0718345
0.0979777
0.120186
0.133193
0.135729
0.131739
0.126752
0.121665
0.110559
0.0863066
0.0486204
0.00555001
-0.0325321
-0.0592001
-0.0741301
-0.0823659
-0.0905627
-0.100712
-0.107825
-0.105461
-0.0926839
-0.0745148
-0.0564358
-0.0404832
-0.026632
-0.0148313
-0.00518069
0.00187876
0.00574067
0.00622651
0.00366232
-0.00131319
-0.00778724
-0.0148761
-0.021846
-0.0281137
-0.0333566
-0.037353
-0.0400415
-0.0413833
-0.0413834
-0.0400417
-0.0373533
-0.0333568
-0.0281136
-0.0218454
-0.0148747
-0.00778499
-0.00130994
0.00366647
0.00623128
0.00574567
0.00188352
-0.00517654
-0.0148279
-0.0266292
-0.0404812
-0.0564348
-0.0745161
-0.0926884
-0.105467
-0.107831
-0.100715
-0.0905643
-0.0823679
-0.074134
-0.0592054
-0.0325367
0.00554863
0.0486235
0.0863129
0.110565
0.121668
0.126753
0.13174
0.135732
0.133197
0.120189
0.0979793
0.0718339
0.0474681
0.0284113
0.0154911
0.00773811
0.00355992
0.00151556
0.000599545
0.000220799
7.43333e-05
1.7247e-05
3.72224e-05
0.000156643
0.00044896
0.00117043
0.00283053
0.00633714
0.0130739
0.0247203
0.0425841
0.0664147
0.0932278
0.117332
0.132642
0.136629
0.132619
0.126865
0.12148
0.110559
0.0856557
0.045869
0.000474853
-0.0389279
-0.0662566
-0.0814681
-0.0885289
-0.0935572
-0.0994466
-0.101609
-0.09335
-0.0748479
-0.0536218
-0.0366713
-0.0248235
-0.0159781
-0.00994964
-0.0074484
-0.00868122
-0.0136662
-0.0216086
-0.0309923
-0.0404185
-0.0487957
-0.0553571
-0.0600089
-0.0628329
-0.0642394
-0.0646754
-0.0645645
-0.0642895
-0.0640823
-0.0640826
-0.0642904
-0.0645661
-0.0646777
-0.0642422
-0.0628361
-0.0600123
-0.0553604
-0.0487983
-0.0404201
-0.0309925
-0.0216072
-0.0136633
-0.00867729
-0.00744405
-0.00994533
-0.0159742
-0.0248196
-0.0366676
-0.0536198
-0.0748497
-0.0933554
-0.101615
-0.0994506
-0.0935596
-0.0885318
-0.0814727
-0.0662622
-0.0389329
0.00047297
0.0458719
0.0856621
0.110565
0.121483
0.126866
0.13262
0.136632
0.132646
0.117335
0.0932289
0.0664137
0.0425819
0.0247181
0.0130722
0.00633595
0.00282984
0.00117007
0.000448794
0.000156575
3.72044e-05
7.62516e-05
0.000313285
0.000865852
0.00216491
0.00500211
0.010657
0.0208273
0.037111
0.0598922
0.0869668
0.113011
0.131293
0.13769
0.134178
0.127316
0.121018
0.110514
0.0863066
0.045869
-0.00122246
-0.0420296
-0.0705394
-0.086907
-0.0930335
-0.0935002
-0.0934854
-0.0912841
-0.0803756
-0.0607528
-0.0410919
-0.0290906
-0.0239889
-0.0208978
-0.0194561
-0.0218721
-0.027527
-0.0348946
-0.0424233
-0.0480271
-0.0505274
-0.0499623
-0.0466623
-0.0415049
-0.0355452
-0.0293804
-0.0238269
-0.0190713
-0.0154704
-0.0130178
-0.0118023
-0.0118023
-0.0130177
-0.0154704
-0.0190714
-0.0238274
-0.0293814
-0.035547
-0.0415075
-0.0466659
-0.0499665
-0.0505318
-0.0480312
-0.0424261
-0.0348957
-0.0275264
-0.02187
-0.0194534
-0.0208951
-0.0239856
-0.029086
-0.0410878
-0.0607522
-0.0803787
-0.0912882
-0.0934884
-0.0935031
-0.0930377
-0.0869123
-0.070545
-0.0420346
-0.0012245
0.0458719
0.0863129
0.11052
0.12102
0.127317
0.13418
0.137694
0.131297
0.113014
0.0869672
0.0598908
0.0371088
0.0208252
0.0106555
0.00500111
0.00216436
0.00086558
0.000313168
7.62196e-05
0.000148454
0.00059545
0.00158608
0.00379986
0.008378
0.0169606
0.0313449
0.052528
0.0792527
0.10695
0.128619
0.138478
0.136413
0.128485
0.120578
0.110336
0.0880419
0.0486204
0.000474853
-0.0420296
-0.0719931
-0.0898795
-0.0956708
-0.0914529
-0.0852752
-0.0808684
-0.0719603
-0.055478
-0.0391855
-0.0311548
-0.0300645
-0.0290354
-0.0271909
-0.0292702
-0.0342053
-0.0377479
-0.0387752
-0.0363484
-0.0303534
-0.0225214
-0.0144045
-0.00675314
-0.000760544
0.00370656
0.0066372
0.00824772
0.00911791
0.00932838
0.00939998
0.00934045
0.00934068
0.00940066
0.0093295
0.00911949
0.00824966
0.00663944
0.00370888
-0.000758424
-0.00675157
-0.014404
-0.0225221
-0.0303555
-0.0363517
-0.0387788
-0.0377509
-0.0342069
-0.0292699
-0.0271898
-0.0290349
-0.0300632
-0.0311513
-0.0391817
-0.055477
-0.0719619
-0.0808701
-0.0852762
-0.0914557
-0.095676
-0.0898854
-0.0719988
-0.0420346
0.00047297
0.0486235
0.088048
0.110341
0.12058
0.128487
0.136416
0.138482
0.128623
0.106952
0.0792524
0.0525262
0.0313427
0.0169587
0.00837666
0.00379906
0.00158566
0.00059526
0.0001484
0.000274964
0.00107679
0.00276338
0.00633886
0.0133232
0.0255975
0.044671
0.0702928
0.0989992
0.12407
0.138337
0.139088
0.130759
0.120694
0.110002
0.090291
0.0536938
0.00555001
-0.0389279
-0.0705394
-0.0898795
-0.0965165
-0.0895638
-0.0784119
-0.0735448
-0.069769
-0.0578972
-0.0427935
-0.0341416
-0.0322667
-0.0304148
-0.0262808
-0.0261857
-0.0302616
-0.030418
-0.0262291
-0.0203948
-0.0132277
-0.00697551
-0.0034516
-0.00207922
-0.00264041
-0.00500646
-0.00750671
-0.010682
-0.0132302
-0.0155908
-0.0172742
-0.0184352
-0.0190047
-0.0190048
-0.0184352
-0.0172742
-0.0155906
-0.0132299
-0.0106813
-0.00750546
-0.00500469
-0.00263798
-0.00207641
-0.00344875
-0.00697304
-0.0132265
-0.0203952
-0.0262306
-0.0304206
-0.0302634
-0.0261853
-0.0262799
-0.030415
-0.0322662
-0.0341393
-0.0427915
-0.0578977
-0.0697705
-0.0735444
-0.0784111
-0.0895664
-0.096522
-0.0898854
-0.070545
-0.0389329
0.00554863
0.0536973
0.0902966
0.110006
0.120696
0.130761
0.139091
0.138341
0.124073
0.0990004
0.0702919
0.044669
0.0255953
0.0133216
0.00633777
0.00276277
0.0010765
0.000274879
0.000485162
0.00185543
0.00458713
0.0100699
0.0201616
0.0367271
0.0604555
0.0892222
0.117195
0.136454
0.141603
0.134299
0.122069
0.109798
0.0923848
0.0602005
0.0138136
-0.0325321
-0.0662566
-0.086907
-0.0956708
-0.0895638
-0.0757732
-0.0701187
-0.0711601
-0.0630595
-0.0457827
-0.0326843
-0.027929
-0.0261863
-0.0229141
-0.0220658
-0.0266746
-0.0265418
-0.0194985
-0.0143431
-0.011096
-0.00943845
-0.0110968
-0.0144173
-0.0173246
-0.0208211
-0.0232336
-0.0247677
-0.0262232
-0.0263817
-0.0270336
-0.0267886
-0.0269918
-0.0268638
-0.0268639
-0.0269921
-0.0267891
-0.0270343
-0.0263825
-0.0262241
-0.0247686
-0.0232345
-0.0208216
-0.0173244
-0.0144165
-0.011095
-0.00943598
-0.0110939
-0.0143414
-0.0194983
-0.026544
-0.0266762
-0.0220648
-0.022913
-0.0261857
-0.0279274
-0.0326819
-0.0457822
-0.0630623
-0.0711624
-0.0701171
-0.0757716
-0.0895664
-0.095676
-0.0869123
-0.0662622
-0.0325367
0.013813
0.0602044
0.0923896
0.1098
0.122071
0.134302
0.141607
0.136459
0.117198
0.0892224
0.060454
0.0367251
0.0201597
0.0100685
0.00458629
0.00185501
0.000485034
0.000816851
0.00305193
0.00726966
0.0152689
0.0291071
0.0502396
0.0779406
0.107796
0.132008
0.142978
0.138792
0.125349
0.110449
0.0939571
0.0668945
0.0245806
-0.0226119
-0.0592001
-0.0814681
-0.0930335
-0.0914529
-0.0784119
-0.0701187
-0.072213
-0.0666111
-0.0462924
-0.0280852
-0.0216347
-0.0221456
-0.0231643
-0.022728
-0.0256836
-0.0263447
-0.0177666
-0.0130933
-0.0149309
-0.0159802
-0.0186286
-0.0221301
-0.0235468
-0.0240022
-0.0249765
-0.0235609
-0.0237089
-0.022475
-0.0218916
-0.0212965
-0.0206012
-0.0204014
-0.0201106
-0.0201106
-0.0204016
-0.0206014
-0.0212969
-0.0218921
-0.0224756
-0.0237098
-0.0235619
-0.0249779
-0.0240034
-0.0235481
-0.0221311
-0.0186285
-0.0159794
-0.0149296
-0.0130907
-0.0177655
-0.0263467
-0.0256849
-0.0227277
-0.0231638
-0.0221441
-0.0216314
-0.0280817
-0.0462925
-0.0666155
-0.0722157
-0.0701171
-0.0784111
-0.0914557
-0.0930377
-0.0814727
-0.0592054
-0.0226158
0.0245811
0.0668983
0.0939607
0.110451
0.125351
0.138796
0.142983
0.132012
0.107797
0.07794
0.0502378
0.029105
0.0152673
0.00726857
0.00305135
0.00081667
0.00131488
0.004802
0.0110246
0.0221551
0.0402021
0.0657192
0.0960326
0.124391
0.141999
0.143291
0.130744
0.113009
0.0953485
0.0725766
0.0364393
-0.00929702
-0.0491063
-0.0741301
-0.0885289
-0.0935002
-0.0852752
-0.0735448
-0.0711601
-0.0666111
-0.0460373
-0.0244408
-0.017621
-0.020629
-0.0257116
-0.0264431
-0.0246307
-0.0249843
-0.0186136
-0.0132658
-0.0191576
-0.0218606
-0.021712
-0.0234879
-0.0230962
-0.0205815
-0.0197935
-0.0175947
-0.0146607
-0.0139061
-0.0102525
-0.00992975
-0.00719958
-0.00688217
-0.00555589
-0.00540684
-0.00540671
-0.00555579
-0.0068819
-0.00719929
-0.00992957
-0.0102522
-0.0139063
-0.0146608
-0.0175952
-0.0197944
-0.0205823
-0.0230978
-0.0234894
-0.0217128
-0.0218619
-0.0191575
-0.0132631
-0.0186126
-0.0249855
-0.0246315
-0.0264443
-0.0257121
-0.0206271
-0.0176166
-0.0244362
-0.0460375
-0.0666155
-0.0711624
-0.0735444
-0.0852762
-0.0935031
-0.0885318
-0.074134
-0.0491112
-0.00929967
0.0364407
0.0725798
0.0953508
0.113011
0.130746
0.143295
0.142004
0.124394
0.0960331
0.0657179
0.0402002
0.0221532
0.0110233
0.00480124
0.00131464
0.00202796
0.00724403
0.0160388
0.0308461
0.0532768
0.0824605
0.113434
0.137513
0.14627
0.137647
0.118397
0.0977402
0.0767643
0.0474645
0.00637814
-0.0355041
-0.0648623
-0.0823659
-0.0935572
-0.0934854
-0.0808684
-0.069769
-0.0630595
-0.0462924
-0.0244408
-0.0164573
-0.0204917
-0.0272019
-0.0302844
-0.0248609
-0.0219215
-0.0210802
-0.0156168
-0.0198905
-0.0239764
-0.018671
-0.0174406
-0.0158946
-0.0115468
-0.00812147
-0.00693278
-0.00213459
-0.00208819
-7.70928e-05
0.000599925
-0.000291696
0.000608375
-0.00103444
-0.000504296
-0.0012302
-0.00123015
-0.000503883
-0.00103398
0.000609326
-0.000290786
0.000601299
-7.56776e-05
-0.0020869
-0.00213292
-0.00693201
-0.00812056
-0.0115464
-0.0158953
-0.017441
-0.0186717
-0.0239787
-0.0198909
-0.0156151
-0.0210799
-0.0219214
-0.0248617
-0.030287
-0.027203
-0.0204898
-0.0164525
-0.0244362
-0.0462925
-0.0630623
-0.0697705
-0.0808701
-0.0934884
-0.0935596
-0.0823679
-0.0648659
-0.0355081
0.00637696
0.0474662
0.0767664
0.0977415
0.118399
0.137651
0.146275
0.137517
0.113436
0.0824601
0.0532752
0.0308441
0.0160373
0.0072431
0.00202765
0.00300379
0.0105027
0.0224423
0.0413223
0.0679378
0.0995303
0.128799
0.145961
0.14448
0.126734
0.102768
0.0802684
0.0560463
0.0222418
-0.0184878
-0.0527489
-0.0746712
-0.0905627
-0.0994466
-0.0912841
-0.0719603
-0.0578972
-0.0457827
-0.0280852
-0.017621
-0.0204917
-0.02743
-0.0327141
-0.0277565
-0.0185626
-0.0196933
-0.0176924
-0.0150231
-0.0193541
-0.0135783
-0.009551
-0.0107362
-0.00795546
-0.00624451
-0.008248
-0.00980734
-0.0109198
-0.0175224
-0.0174264
-0.0241402
-0.0243962
-0.0283353
-0.0289672
-0.0304539
-0.0307725
-0.0307728
-0.0304541
-0.028968
-0.028336
-0.0243969
-0.024141
-0.0174264
-0.0175226
-0.0109189
-0.00980627
-0.00824693
-0.00624258
-0.00795424
-0.0107357
-0.00954961
-0.0135782
-0.0193556
-0.0150226
-0.017692
-0.0196927
-0.0185613
-0.0277582
-0.0327175
-0.0274311
-0.0204898
-0.0176166
-0.0280817
-0.0457822
-0.0578977
-0.0719619
-0.0912882
-0.0994506
-0.0905643
-0.0746727
-0.0527519
-0.0184903
0.0222418
0.0560475
0.0802692
0.102769
0.126737
0.144484
0.145966
0.128802
0.0995309
0.0679366
0.0413204
0.0224406
0.0105016
0.00300341
0.00428314
0.0146708
0.0302809
0.0534066
0.0835872
0.115858
0.140877
0.148938
0.136822
0.111622
0.0851544
0.0620145
0.0356246
0.000327904
-0.0367088
-0.0646722
-0.0847791
-0.100712
-0.101609
-0.0803756
-0.055478
-0.0427935
-0.0326843
-0.0216347
-0.020629
-0.0272019
-0.0327141
-0.0297154
-0.0161577
-0.012414
-0.0175438
-0.0133764
-0.0146727
-0.0162031
-0.0117306
-0.015281
-0.015979
-0.0164414
-0.0194598
-0.0240539
-0.0236495
-0.0267746
-0.0260896
-0.0230736
-0.0236882
-0.0175055
-0.0184092
-0.0133494
-0.0138214
-0.0119799
-0.01198
-0.0138215
-0.0133496
-0.0184099
-0.017506
-0.0236897
-0.0230749
-0.0260915
-0.0267769
-0.0236509
-0.0240556
-0.0194604
-0.016441
-0.015979
-0.0152807
-0.0117294
-0.0162034
-0.0146727
-0.0133759
-0.0175437
-0.0124113
-0.0161557
-0.0297179
-0.0327175
-0.027203
-0.0206271
-0.0216314
-0.0326819
-0.0427915
-0.055477
-0.0803787
-0.101615
-0.100715
-0.0847801
-0.0646735
-0.0367109
0.000326914
0.0356249
0.0620147
0.0851545
0.111624