/*--------------------------------*- C++ -*----------------------------------*\
  =========                 |
  \\      /  F ield         | OpenFOAM: The Open Source CFD Toolbox
   \\    /   O peration     | Website:  https://openfoam.org
    \\  /    A nd           | Version:  10
     \\/     M anipulation  |
\*---------------------------------------------------------------------------*/
FoamFile
{
    format      ascii;
    class       volScalarField;
    location    "61";
    object      h;
}
// * * * * * * * * * * * * * * * * * * * * * * * * * * * * * * * * * * * * * //

dimensions      [0 1 0 0 0 0 0];

internalField   nonuniform List<scalar> 
10000
(
0.00062709
0.00183618
0.00284673
0.00344322
0.00356372
0.0033306
0.00289491
0.00232437
0.00155166
0.000491877
-0.000741922
-0.00180467
-0.00248639
-0.00287098
-0.0030218
-0.00279894
-0.00220451
-0.00158024
-0.00121952
-0.00111977
-0.00110498
-0.000998183
-0.000640193
-4.82903e-05
0.000454358
0.000479167
1.11844e-05
-0.000505149
-0.000541935
1.03718e-05
0.000696877
0.000986342
0.000774044
0.000535816
0.000860215
0.00174008
0.00250929
0.00242472
0.00118322
-0.000789002
-0.00260774
-0.00358896
-0.0035847
-0.00288347
-0.00192282
-0.000989611
-0.000142237
0.000643876
0.00131098
0.00170563
0.00170562
0.00131095
0.000643822
-0.000142309
-0.000989685
-0.00192287
-0.00288349
-0.00358467
-0.00358891
-0.00260771
-0.00078903
0.00118312
0.0024246
0.00250923
0.00174016
0.000860464
0.000536142
0.000774258
0.00098626
0.000696451
9.75632e-06
-0.000542456
-0.000505323
1.14125e-05
0.000479627
0.000454777
-4.81092e-05
-0.000640263
-0.000998357
-0.00110507
-0.00111969
-0.00121933
-0.00158014
-0.00220476
-0.00279965
-0.00302284
-0.00287207
-0.00248721
-0.001805
-0.000741675
0.000492588
0.00155262
0.00232541
0.00289595
0.00333165
0.0035648
0.00344431
0.00284768
0.00183682
0.0006273
0.00183618
0.00539316
0.00840584
0.0102359
0.0106571
0.00996942
0.00858019
0.00669383
0.00416784
0.000835258
-0.00290546
-0.00603797
-0.00799827
-0.00909746
-0.0095608
-0.00896357
-0.00723341
-0.00526483
-0.0038683
-0.00308889
-0.00254541
-0.00186782
-0.000683803
0.000967056
0.0022548
0.00219349
0.000836758
-0.000523379
-0.00044534
0.00126165
0.00319871
0.00384074
0.00299363
0.00216449
0.00311405
0.00576761
0.00806453
0.00772946
0.00385696
-0.00223794
-0.00785967
-0.0109151
-0.0109426
-0.00882431
-0.00591374
-0.00311436
-0.000624368
0.0016358
0.0035293
0.00464482
0.00464475
0.00352911
0.00163554
-0.000624632
-0.00311456
-0.00591386
-0.00882433
-0.0109425
-0.010915
-0.00785958
-0.00223793
0.00385686
0.00772929
0.00806441
0.00576773
0.00311449
0.00216515
0.00299414
0.0038407
0.00319794
0.00126041
-0.000446442
-0.000523746
0.000837304
0.00219461
0.0022559
0.000967676
-0.000683737
-0.00186803
-0.00254555
-0.00308876
-0.00386801
-0.00526483
-0.00723425
-0.00896552
-0.00956356
-0.00910037
-0.0080006
-0.00603911
-0.00290513
0.000836897
0.00417032
0.0066967
0.00858323
0.00997258
0.0106604
0.0102392
0.00840864
0.00539502
0.00183681
0.00284673
0.00840584
0.0132149
0.0162555
0.0170596
0.0159584
0.0135226
0.0101064
0.00563072
3.01169e-05
-0.00592138
-0.01065
-0.01345
-0.0150219
-0.0158388
-0.0151841
-0.0127247
-0.00958102
-0.0068918
-0.00483802
-0.00311591
-0.00145782
0.000538931
0.00285985
0.00446723
0.00413455
0.00213485
0.000450352
0.00109227
0.00405063
0.00696762
0.00752148
0.00569487
0.00415645
0.00577772
0.0102994
0.0141775
0.0135517
0.00693611
-0.00342548
-0.0130025
-0.0182544
-0.0183724
-0.0148311
-0.00993551
-0.00525968
-0.00118367
0.00242016
0.00538524
0.0071223
0.00712213
0.00538479
0.00241959
-0.00118415
-0.00525999
-0.00993563
-0.0148311
-0.0183723
-0.0182543
-0.0130024
-0.00342526
0.00693637
0.0135519
0.0141775
0.0102993
0.00577777
0.00415677
0.00569533
0.00752171
0.00696729
0.00404979
0.00109136
0.000449977
0.0021353
0.00413566
0.00446852
0.00286091
0.000539584
-0.00145751
-0.00311583
-0.00483809
-0.00689206
-0.00958175
-0.0127263
-0.0151868
-0.0158423
-0.0150256
-0.0134532
-0.010652
-0.00592158
3.18037e-05
0.00563392
0.0101106
0.0135275
0.0159637
0.0170649
0.0162607
0.0132193
0.00840864
0.00284767
0.00344322
0.0102359
0.0162555
0.0202068
0.0213457
0.0199091
0.0165576
0.0118171
0.005791
-0.00136489
-0.008521
-0.0137978
-0.0166438
-0.0183016
-0.0195424
-0.0193604
-0.0170022
-0.0134821
-0.0100563
-0.00706937
-0.00443848
-0.00210214
0.000324438
0.00291134
0.00461958
0.00418419
0.00208338
0.000727247
0.00235728
0.00658852
0.0102326
0.0104314
0.00755555
0.00542823
0.00786024
0.0143216
0.0198438
0.0190654
0.00997912
-0.00430443
-0.017576
-0.0249403
-0.025222
-0.0203962
-0.0136226
-0.00709977
-0.00140521
0.00358225
0.00763839
0.0100074
0.0100072
0.0076378
0.00358154
-0.00140579
-0.00710012
-0.0136228
-0.0203963
-0.0252221
-0.0249404
-0.0175759
-0.00430392
0.00997991
0.0190661
0.019844
0.0143213
0.00785962
0.00542779
0.00755559
0.0104317
0.0102329
0.00658844
0.00235688
0.000726903
0.00208343
0.00418472
0.00462051
0.00291251
0.000325653
-0.00210118
-0.00443814
-0.00706988
-0.0100576
-0.013484
-0.0170047
-0.0193634
-0.0195456
-0.0183048
-0.0166468
-0.0138
-0.00852178
-0.00136366
0.00579427
0.0118221
0.0165638
0.019916
0.0213527
0.0202132
0.0162607
0.0102392
0.00344429
0.00356372
0.0106571
0.0170596
0.0213457
0.022546
0.0207629
0.016734
0.0111763
0.00440217
-0.00324195
-0.0104239
-0.0152451
-0.0174975
-0.0189193
-0.0204847
-0.0209324
-0.0191181
-0.0158467
-0.0124235
-0.00934897
-0.00667725
-0.00435643
-0.00188726
0.000898309
0.0029392
0.00286662
0.0011846
0.000490313
0.00310531
0.00834114
0.0124617
0.0122968
0.00861779
0.00616092
0.0093926
0.0175159
0.0244182
0.0235144
0.0123841
-0.00517032
-0.0216077
-0.0309117
-0.031538
-0.025783
-0.0174428
-0.00920621
-0.00184485
0.00466067
0.00993735
0.01302
0.0130198
0.00993683
0.00466004
-0.00184537
-0.00920655
-0.017443
-0.0257833
-0.0315384
-0.030912
-0.0216076
-0.00516962
0.0123853
0.0235156
0.0244187
0.0175155
0.00939154
0.00615989
0.00861738
0.0122971
0.0124622
0.00834149
0.00310532
0.000490136
0.00118448
0.00286671
0.00293961
0.000899133
-0.0018861
-0.00435533
-0.00667688
-0.00934984
-0.0124256
-0.0158496
-0.0191212
-0.0209352
-0.0204871
-0.0189214
-0.0174995
-0.015247
-0.0104249
-0.00324126
0.00440503
0.0111812
0.0167406
0.0207706
0.0225538
0.0213527
0.0170649
0.0106604
0.00356478
0.0033306
0.00996942
0.0159584
0.0199091
0.0207629
0.0185325
0.0140565
0.00822458
0.00145787
-0.00588483
-0.0124799
-0.0165831
-0.0182607
-0.0194226
-0.0209993
-0.0215679
-0.0198548
-0.0166216
-0.0133152
-0.010581
-0.00840496
-0.00642736
-0.00388874
-0.000619199
0.00212565
0.00273047
0.0015943
0.00141065
0.00461097
0.0104052
0.0148086
0.0144697
0.0104086
0.00788826
0.0116939
0.0208207
0.028416
0.0270651
0.0140907
-0.00620673
-0.0253504
-0.0364812
-0.0377007
-0.0314474
-0.0219327
-0.0122054
-0.00323382
0.00480999
0.0113352
0.0151516
0.0151514
0.0113346
0.00480935
-0.00323435
-0.0122057
-0.0219329
-0.0314477
-0.0377011
-0.0364815
-0.0253504
-0.00620606
0.0140919
0.0270663
0.0284165
0.0208203
0.0116928
0.00788714
0.010408
0.0144698
0.0148091
0.0104056
0.00461123
0.00141091
0.00159465
0.00273079
0.00212584
-0.000619047
-0.00388843
-0.00642697
-0.00840493
-0.0105819
-0.0133172
-0.0166243
-0.0198577
-0.0215704
-0.0210011
-0.0194238
-0.0182617
-0.0165842
-0.0124808
-0.00588454
0.00146003
0.00822885
0.0140627
0.0185399
0.0207706
0.019916
0.0159636
0.00997256
0.00333162
0.00289491
0.00858019
0.0135226
0.0165576
0.016734
0.0140565
0.00947043
0.00395522
-0.00215885
-0.00875274
-0.0146986
-0.0184265
-0.0200194
-0.0211283
-0.0224027
-0.0224426
-0.020204
-0.0166192
-0.0133224
-0.0110257
-0.00945297
-0.00774758
-0.00491315
-0.000970249
0.00250144
0.00367194
0.00290688
0.00301802
0.00655665
0.0127286
0.0174823
0.0173601
0.0134759
0.0112564
0.0154868
0.0249929
0.0325564
0.0303279
0.0155623
-0.00707171
-0.0284947
-0.0412633
-0.043171
-0.0366886
-0.0262928
-0.0153034
-0.00488522
0.00455664
0.0122059
0.0166819
0.0166815
0.012205
0.00455563
-0.00488602
-0.0153038
-0.0262929
-0.0366886
-0.043171
-0.0412634
-0.0284947
-0.00707123
0.0155632
0.0303289
0.0325569
0.0249926
0.0154858
0.0112555
0.0134756
0.0173604
0.0174828
0.012729
0.00655702
0.00301867
0.00290784
0.00367278
0.00250164
-0.000970848
-0.00491418
-0.00774854
-0.00945369
-0.0110264
-0.0133235
-0.0166207
-0.0202059
-0.0224445
-0.0224042
-0.0211292
-0.02002
-0.018427
-0.0146989
-0.0087524
-0.00215726
0.0039584
0.00947527
0.0140626
0.0167406
0.0165638
0.0135274
0.00858321
0.00289592
0.00232437
0.00669383
0.0101064
0.0118171
0.0111763
0.00822458
0.00395522
-0.000672875
-0.00560092
-0.0111335
-0.0164301
-0.0200301
-0.0218024
-0.0228863
-0.0236169
-0.0228689
-0.0200786
-0.0163536
-0.0133433
-0.0116689
-0.0107341
-0.00925931
-0.00621383
-0.00195757
0.00169883
0.00300318
0.00249178
0.0030439
0.00713183
0.0138575
0.0191993
0.0197339
0.0166309
0.0152105
0.0199624
0.0295193
0.0365893
0.0332491
0.0168817
-0.00756384
-0.0306902
-0.0447146
-0.04719
-0.0405536
-0.0294349
-0.0173588
-0.00568697
0.00493421
0.0134984
0.0185018
0.0185013
0.0134971
0.00493271
-0.00568811
-0.0173592
-0.0294346
-0.0405531
-0.0471896
-0.0447145
-0.0306902
-0.00756359
0.0168824
0.0332499
0.0365896
0.0295189
0.0199615
0.0152098
0.0166309
0.0197346
0.0192001
0.013858
0.00713208
0.00304435
0.00249263
0.00300401
0.00169889
-0.00195871
-0.0062159
-0.0092615
-0.0107356
-0.0116696
-0.0133433
-0.0163535
-0.0200789
-0.0228698
-0.0236181
-0.0228872
-0.0218028
-0.0200301
-0.0164297
-0.0111326
-0.00559943
-0.000670673
0.0039584
0.00822883
0.0111812
0.0118221
0.0101106
0.00669668
0.00232539
0.00155166
0.00416784
0.00563072
0.005791
0.00440217
0.00145787
-0.00215885
-0.00560092
-0.00912095
-0.0134443
-0.0179818
-0.0213138
-0.0230362
-0.0238122
-0.0238228
-0.0224083
-0.0194792
-0.0160689
-0.0135431
-0.0123481
-0.0117503
-0.0103713
-0.00740402
-0.00352972
-0.000469945
0.000518619
0.000305265
0.0016277
0.00653013
0.0138604
0.0197705
0.0211169
0.0191659
0.018904
0.0242479
0.0335899
0.0398151
0.0352508
0.017555
-0.00816649
-0.0324801
-0.0474743
-0.0504813
-0.043806
-0.0321114
-0.0190927
-0.00635619
0.00519053
0.0144029
0.019752
0.0197515
0.0144016
0.00518891
-0.00635742
-0.0190931
-0.032111
-0.0438053
-0.0504807
-0.0474741
-0.0324802
-0.00816642
0.0175555
0.0352514
0.0398154
0.0335895
0.0242471
0.0189033
0.0191661
0.0211179
0.0197716
0.0138611
0.0065301
0.00162738
0.000305133
0.000518657
-0.000470261
-0.00353092
-0.0074061
-0.0103737
-0.0117521
-0.0123488
-0.0135427
-0.0160678
-0.0194783
-0.022408
-0.0238233
-0.0238129
-0.0230366
-0.0213135
-0.0179808
-0.0134427
-0.0091193
-0.00559944
-0.00215727
0.00146001
0.00440501
0.00579425
0.0056339
0.0041703
0.00155261
0.000491877
0.000835258
3.01169e-05
-0.00136489
-0.00324195
-0.00588483
-0.00875274
-0.0111335
-0.0134443
-0.0166447
-0.0203041
-0.0230576
-0.0243493
-0.0245723
-0.0239136
-0.0221518
-0.0194092
-0.0163141
-0.0137668
-0.0121722
-0.0110429
-0.00929963
-0.00651459
-0.00350897
-0.00155352
-0.00111809
-0.00101242
0.00107906
0.00651595
0.0139259
0.0199201
0.0219185
0.0212653
0.0223325
0.0282004
0.0370064
0.0420653
0.0362306
0.0174855
-0.00911085
-0.0343755
-0.0504076
-0.0542353
-0.0478491
-0.0357945
-0.0219379
-0.00824605
0.00404789
0.0136907
0.0192194
0.019219
0.0136896
0.00404659
-0.008247
-0.0219381
-0.0357941
-0.0478484
-0.0542349
-0.0504076
-0.0343758
-0.00911101
0.0174858
0.0362313
0.0420658
0.0370064
0.0281998
0.0223319
0.0212654
0.0219195
0.0199214
0.0139266
0.00651563
0.00107791
-0.00101376
-0.00111913
-0.00155425
-0.00350973
-0.00651561
-0.00930087
-0.0110439
-0.0121727
-0.0137663
-0.0163129
-0.0194076
-0.0221507
-0.0239132
-0.0245724
-0.0243495
-0.0230573
-0.0203031
-0.016643
-0.0134427
-0.0111326
-0.00875242
-0.00588456
-0.00324128
-0.00136368
3.17857e-05
0.000836885
0.000492582
-0.000741922
-0.00290546
-0.00592138
-0.008521
-0.0104239
-0.0124799
-0.0146986
-0.0164301
-0.0179818
-0.0203041
-0.023101
-0.0252019
-0.0260974
-0.0260754
-0.0253175
-0.0237893
-0.0214739
-0.0184043
-0.015062
-0.0120647
-0.00949466
-0.00679918
-0.00391925
-0.00162364
-0.000581423
-0.000493775
-3.76104e-05
0.00247598
0.00772172
0.0143832
0.0198985
0.0224607
0.0233516
0.025997
0.0324181
0.0405306
0.0443185
0.0373785
0.0179908
-0.00908318
-0.0351881
-0.0525259
-0.0576877
-0.0521188
-0.0400404
-0.0254453
-0.010769
0.00233351
0.0124418
0.0181412
0.0181409
0.012441
0.00233263
-0.0107695
-0.0254452
-0.0400399
-0.0521182
-0.0576875
-0.0525263
-0.0351889
-0.00908371
0.017991
0.0373794
0.0443196
0.0405312
0.032418
0.0259966
0.0233516
0.0224612
0.0198994
0.0143836
0.00772109
0.00247432
-3.9698e-05
-0.000495541
-0.000582412
-0.00162383
-0.00391891
-0.00679867
-0.00949424
-0.0120644
-0.0150616
-0.0184036
-0.0214727
-0.0237879
-0.0253163
-0.0260747
-0.0260972
-0.0252018
-0.0231004
-0.0203031
-0.0179808
-0.0164297
-0.014699
-0.0124808
-0.0104249
-0.0085218
-0.00592159
-0.00290514
-0.000741674
-0.00180467
-0.00603797
-0.01065
-0.0137978
-0.0152451
-0.0165831
-0.0184265
-0.0200301
-0.0213138
-0.0230576
-0.0252019
-0.0269696
-0.0280116
-0.0284953
-0.0284357
-0.0277203
-0.0260198
-0.0228522
-0.0184745
-0.0138426
-0.0096141
-0.005696
-0.00227686
-9.03547e-06
0.000904573
0.00124427
0.00220519
0.00478016
0.0091545
0.0144327
0.0191864
0.0224682
0.0252892
0.0298336
0.0369321
0.0443625
0.0469933
0.0393366
0.0199201
-0.00703629
-0.0336764
-0.0524223
-0.0593494
-0.0551524
-0.0434806
-0.0283226
-0.0126084
0.00151069
0.0123218
0.0183259
0.0183256
0.0123211
0.00151004
-0.0126087
-0.0283222
-0.0434798
-0.0551517
-0.0593493
-0.0524229
-0.0336775
-0.00703716
0.0199201
0.0393376
0.0469949
0.0443638
0.0369326
0.0298334
0.0252888
0.022468
0.0191863
0.0144324
0.00915354
0.00477844
0.00220315
0.00124257
0.00090375
-8.7596e-06
-0.00227562
-0.00569422
-0.00961235
-0.0138414
-0.0184739
-0.0228522
-0.0260196
-0.0277196
-0.0284345
-0.028494
-0.0280107
-0.0269692
-0.0252018
-0.0230573
-0.0213135
-0.0200301
-0.018427
-0.0165842
-0.015247
-0.0138001
-0.010652
-0.00603911
-0.00180499
-0.00248639
-0.00799827
-0.01345
-0.0166438
-0.0174975
-0.0182607
-0.0200194
-0.0218024
-0.0230362
-0.0243493
-0.0260974
-0.0280116
-0.0298132
-0.0313554
-0.0323381
-0.0325243
-0.0314013
-0.0282492
-0.0232485
-0.0175556
-0.0121112
-0.00706946
-0.00278158
0.00014837
0.00174207
0.00295056
0.00464927
0.0071497
0.0103346
0.0139626
0.017871
0.0219592
0.0267987
0.0331754
0.0407355
0.0472688
0.0487296
0.0406931
0.0218886
-0.00422861
-0.0308625
-0.0508078
-0.0596252
-0.0571377
-0.0462405
-0.030806
-0.0142496
0.000777929
0.012239
0.0185102
0.0185099
0.0122384
0.00077733
-0.0142498
-0.0308057
-0.0462398
-0.0571369
-0.0596249
-0.0508082
-0.0308634
-0.00422942
0.0218885
0.0406941
0.0487313
0.0472704
0.0407362
0.033175
0.0267976
0.0219579
0.0178699
0.0139616
0.0103335
0.00714837
0.00464801
0.00294976
0.00174203
0.000149185
-0.00277999
-0.00706734
-0.012109
-0.0175538
-0.0232477
-0.0282494
-0.031402
-0.0325246
-0.0323376
-0.0313542
-0.0298119
-0.0280107
-0.0260972
-0.0243495
-0.0230366
-0.0218029
-0.02002
-0.0182617
-0.0174995
-0.0166468
-0.0134532
-0.00800059
-0.0024872
-0.00287098
-0.00909746
-0.0150219
-0.0183016
-0.0189193
-0.0194226
-0.0211283
-0.0228863
-0.0238122
-0.0245723
-0.0260754
-0.0284953
-0.0313554
-0.0339624
-0.0357171
-0.0364673
-0.0358025
-0.0329821
-0.0280557
-0.0220572
-0.0158844
-0.00984054
-0.00449076
-0.000486719
0.00228908
0.00480596
0.00754022
0.0101392
0.0122456
0.014301
0.0173527
0.0220509
0.0284273
0.0358783
0.0430433
0.0479763
0.0479219
0.039622
0.021925
-0.00269451
-0.028715
-0.0494219
-0.0598956
-0.0590775
-0.0491021
-0.0337603
-0.0169772
-0.00180575
0.0095867
0.0156755
0.0156753
0.00958616
-0.00180642
-0.0169777
-0.0337604
-0.0491016
-0.0590768
-0.0598949
-0.0494216
-0.0287152
-0.00269481
0.0219251
0.0396228
0.0479232
0.0479774
0.0430435
0.0358774
0.0284255
0.0220488
0.0173509
0.0142997
0.0122447
0.0101387
0.00754017
0.00480655
0.00229029
-0.00048509
-0.00448896
-0.00983869
-0.0158826
-0.0220556
-0.0280548
-0.0329823
-0.0358035
-0.0364683
-0.0357175
-0.0339618
-0.0313542
-0.028494
-0.0260747
-0.0245724
-0.0238129
-0.0228872
-0.0211292
-0.0194238
-0.0189214
-0.0183048
-0.0150256
-0.00910037
-0.00287206
-0.0030218
-0.0095608
-0.0158388
-0.0195424
-0.0204847
-0.0209993
-0.0224027
-0.0236169
-0.0238228
-0.0239136
-0.0253175
-0.0284357
-0.0323381
-0.0357171
-0.0378988
-0.0391183
-0.0392303
-0.0374176
-0.0333415
-0.0276121
-0.020958
-0.0139336
-0.0074281
-0.00213442
0.00220894
0.00655385
0.010909
0.0142155
0.0158412
0.0168247
0.0192587
0.0243889
0.031642
0.0391395
0.044806
0.047272
0.0452537
0.0367043
0.0204838
-0.00208337
-0.0268773
-0.0477536
-0.0593887
-0.0599356
-0.0508938
-0.0360824
-0.0199329
-0.00571985
0.00457264
0.00985211
0.00985188
0.00457202
-0.00572068
-0.0199336
-0.0360828
-0.0508936
-0.0599348
-0.0593876
-0.0477526
-0.0268767
-0.00208314
0.0204839
0.0367045
0.0452541
0.0472721
0.0448054
0.0391379
0.0316397
0.0243865
0.0192568
0.0168238
0.0158411
0.014216
0.0109102
0.00655563
0.00221126
-0.00213196
-0.00742601
-0.0139321
-0.020957
-0.0276113
-0.033341
-0.0374176
-0.0392311
-0.0391195
-0.0378999
-0.0357175
-0.0323376
-0.0284345
-0.0253164
-0.0239132
-0.0238233
-0.0236181
-0.0224042
-0.0210011
-0.0204871
-0.0195456
-0.0158423
-0.00956356
-0.00302283
-0.00279894
-0.00896357
-0.0151841
-0.0193604
-0.0209324
-0.0215679
-0.0224426
-0.0228689
-0.0224083
-0.0221518
-0.0237893
-0.0277203
-0.0325243
-0.0364673
-0.0391183
-0.0412785
-0.0429714
-0.0430306
-0.0404719
-0.0353901
-0.028437
-0.0205587
-0.0129551
-0.00620618
0.000197012
0.00709911
0.0138905
0.0187397
0.0207384
0.0214606
0.0238599
0.0295815
0.0373818
0.0442469
0.047672
0.0471074
0.0428266
0.033991
0.0194168
-0.000771592
-0.0238787
-0.044401
-0.0567452
-0.0584148
-0.0503878
-0.0365223
-0.0216498
-0.00910613
-0.000513958
0.00361911
0.00361887
-0.000514587
-0.0091069
-0.0216504
-0.0365224
-0.0503872
-0.0584137
-0.0567438
-0.0443998
-0.0238779
-0.000771427
0.0194165
0.0339906
0.0428261
0.0471068
0.0476708
0.0442451
0.0373796
0.0295794
0.0238587
0.0214606
0.0207395
0.0187414
0.0138925
0.00710152
0.000199797
-0.00620335
-0.0129528
-0.0205575
-0.0284369
-0.0353904
-0.0404724
-0.0430311
-0.0429721
-0.0412795
-0.0391196
-0.0364684
-0.0325246
-0.0277196
-0.0237879
-0.0221507
-0.022408
-0.0228698
-0.0224445
-0.0215704
-0.0209352
-0.0193634
-0.0151868
-0.00896551
-0.00279964
-0.00220451
-0.00723341
-0.0127247
-0.0170022
-0.0191181
-0.0198548
-0.020204
-0.0200786
-0.0194792
-0.0194092
-0.0214739
-0.0260198
-0.0314013
-0.0358025
-0.0392303
-0.0429714
-0.0469544
-0.0494352
-0.0487647
-0.0446867
-0.0379337
-0.0298064
-0.0215746
-0.0134688
-0.00471366
0.00521433
0.0148999
0.0217575
0.0247363
0.0259689
0.0290932
0.0359269
0.0444722
0.0506804
0.0518014
0.0481908
0.0416246
0.0324128
0.019322
0.0013488
-0.0201368
-0.0402713
-0.0532652
-0.0560282
-0.0490464
-0.0361755
-0.022566
-0.0116032
-0.00458867
-0.00150319
-0.00150323
-0.00458875
-0.0116032
-0.0225657
-0.0361748
-0.0490452
-0.0560267
-0.0532638
-0.0402704
-0.0201366
0.00134818
0.0193207
0.0324114
0.0416234
0.0481898
0.0518004
0.050679
0.0444706
0.0359256
0.0290929
0.0259699
0.0247385
0.0217602
0.0149026
0.00521689
-0.00471111
-0.0134663
-0.0215727
-0.0298057
-0.0379343
-0.0446882
-0.0487665
-0.0494367
-0.0469554
-0.0429721
-0.0392311
-0.0358035
-0.031402
-0.0260196
-0.0214727
-0.0194076
-0.0194783
-0.0200789
-0.0202059
-0.0198577
-0.0191212
-0.0170047
-0.0127263
-0.00723424
-0.00220475
-0.00158024
-0.00526483
-0.00958102
-0.0134821
-0.0158467
-0.0166216
-0.0166192
-0.0163536
-0.0160689
-0.0163141
-0.0184043
-0.0228522
-0.0282492
-0.0329821
-0.0374176
-0.0430306
-0.0494352
-0.0543342
-0.0556655
-0.0530889
-0.0474579
-0.0401621
-0.0321784
-0.0232222
-0.0123717
0.000336923
0.0126235
0.0213514
0.0255781
0.0280108
0.0327232
0.0414182
0.0512558
0.0572577
0.0565534
0.0503628
0.041773
0.0320753
0.0199475
0.0033878
-0.0173231
-0.0377718
-0.0518471
-0.0557824
-0.0495973
-0.0372223
-0.0242261
-0.014206
-0.00827578
-0.00595869
-0.00595832
-0.00827476
-0.0142046
-0.0242245
-0.0372206
-0.0495957
-0.055781
-0.0518461
-0.0377714
-0.0173237
0.00338613
0.0199452
0.0320729
0.0417711
0.0503617
0.056553
0.0572575
0.0512556
0.041418
0.0327237
0.0280126
0.025581
0.0213547
0.0126267
0.000339429
-0.0123698
-0.0232207
-0.0321775
-0.0401621
-0.0474592
-0.0530912
-0.0556683
-0.0543367
-0.0494368
-0.0430312
-0.0374176
-0.0329823
-0.0282495
-0.0228522
-0.0184036
-0.0163129
-0.0160678
-0.0163535
-0.0166207
-0.0166243
-0.0158496
-0.013484
-0.00958175
-0.00526483
-0.00158013
-0.00121952
-0.0038683
-0.0068918
-0.0100563
-0.0124235
-0.0133152
-0.0133224
-0.0133433
-0.0135431
-0.0137668
-0.015062
-0.0184745
-0.0232485
-0.0280557
-0.0333415
-0.0404719
-0.0487647
-0.0556655
-0.0590518
-0.0586556
-0.0553006
-0.0500845
-0.0433812
-0.0343729
-0.022179
-0.00751557
0.00662724
0.0169033
0.0227093
0.0272049
0.034522
0.0459072
0.0576322
0.0639669
0.0620768
0.0539744
0.0437959
0.0335565
0.0217541
0.0055379
-0.0155738
-0.0373072
-0.0530189
-0.0581818
-0.0524465
-0.0399873
-0.0269485
-0.0173015
-0.0120619
-0.0103039
-0.0103032
-0.01206
-0.0172989
-0.0269458
-0.039985
-0.0524448
-0.0581808
-0.0530186
-0.0373077
-0.0155752
0.00553552
0.0217511
0.0335535
0.0437937
0.0539735
0.0620772
0.063968
0.0576334
0.0459084
0.0345234
0.0272072
0.0227125
0.016907
0.00663058
-0.00751323
-0.0221778
-0.0343727
-0.0433818
-0.0500859
-0.0553027
-0.0586583
-0.0590548
-0.0556683
-0.0487665
-0.0404724
-0.033341
-0.0280548
-0.0232478
-0.018474
-0.0150616
-0.0137663
-0.0135427
-0.0133433
-0.0133234
-0.0133172
-0.0124256
-0.0100576
-0.00689206
-0.00386801
-0.00121932
-0.00111977
-0.00308889
-0.00483802
-0.00706937
-0.00934897
-0.010581
-0.0110257
-0.0116689
-0.0123481
-0.0121722
-0.0120647
-0.0138426
-0.0175556
-0.0220572
-0.0276121
-0.0353901
-0.0446867
-0.0530889
-0.0586556
-0.0611472
-0.0611086
-0.0590368
-0.0545495
-0.0463788
-0.0338048
-0.0181443
-0.002778
0.00906484
0.0171729
0.0248333
0.0357666
0.0504639
0.0643909
0.0713702
0.0688101
0.0594366
0.0481517
0.0374403
0.0255791
0.00907286
-0.0130176
-0.0363872
-0.0538776
-0.0603106
-0.0551031
-0.0427103
-0.0297776
-0.020599
-0.0160802
-0.0148641
-0.0148633
-0.0160781
-0.0205962
-0.0297747
-0.0427079
-0.0551017
-0.0603102
-0.053878
-0.0363883
-0.0130194
0.00907048
0.0255763
0.0374375
0.0481497
0.059436
0.0688111
0.0713723
0.0643934
0.0504663
0.0357689
0.0248359
0.0171761
0.00906829
-0.00277497
-0.0181424
-0.0338044
-0.0463798
-0.0545517
-0.0590396
-0.0611116
-0.0611501
-0.0586583
-0.0530913
-0.0446882
-0.0353905
-0.0276113
-0.0220556
-0.0175538
-0.0138414
-0.0120644
-0.0121727
-0.0123488
-0.0116696
-0.0110264
-0.0105819
-0.00934984
-0.00706987
-0.00483809
-0.00308876
-0.00111969
-0.00110498
-0.00254541
-0.00311591
-0.00443848
-0.00667725
-0.00840496
-0.00945297
-0.0107341
-0.0117503
-0.0110429
-0.00949466
-0.0096141
-0.0121112
-0.0158844
-0.020958
-0.028437
-0.0379337
-0.0474579
-0.0553006
-0.0611086
-0.0649868
-0.066729
-0.0652014
-0.0587698
-0.0468513
-0.0311239
-0.0150023
-0.00139584
0.00973792
0.0213866
0.0364495
0.0545206
0.0704994
0.0781487
0.0753151
0.06532
0.0535497
0.0427747
0.0311066
0.0146207
-0.00793207
-0.0323238
-0.0511915
-0.0589826
-0.0549822
-0.043767
-0.0321505
-0.0244708
-0.0213746
-0.0210312
-0.0210306
-0.021373
-0.0244686
-0.0321483
-0.0437654
-0.0549814
-0.0589827
-0.0511924
-0.0323251
-0.00793359
0.0146189
0.0311047
0.0427729
0.0535486
0.06532
0.0753166
0.0781513
0.0705025
0.0545237
0.0364524
0.0213895
0.00974081
-0.00139311
-0.0150003
-0.031123
-0.046852
-0.058772
-0.0652047
-0.0667329
-0.0649905
-0.0611116
-0.0553027
-0.0474592
-0.0379343
-0.0284369
-0.020957
-0.0158826
-0.012109
-0.00961235
-0.00949424
-0.0110439
-0.0117521
-0.0107356
-0.00945368
-0.00840493
-0.00667687
-0.00443814
-0.00311583
-0.00254555
-0.00110507
-0.000998183
-0.00186782
-0.00145782
-0.00210214
-0.00435643
-0.00642736
-0.00774758
-0.00925931
-0.0103713
-0.00929963
-0.00679918
-0.005696
-0.00706946
-0.00984054
-0.0139336
-0.0205587
-0.0298064
-0.0401621
-0.0500845
-0.0590368
-0.066729
-0.0723763
-0.0742172
-0.0703112
-0.0600988
-0.0453329
-0.0291465
-0.0140072
0.000206603
0.0158503
0.0347755
0.0557139
0.0733146
0.0816341
0.0790649
0.0693561
0.0581115
0.0482401
0.0377302
0.022328
0.000457537
-0.02396
-0.0436922
-0.0530405
-0.0511955
-0.0426725
-0.0341195
-0.0295916
-0.0291944
-0.0304053
-0.0304049
-0.0291933
-0.0295902
-0.0341184
-0.042672
-0.0511957
-0.0530413
-0.0436932
-0.0239609
0.00045679
0.0223274
0.0377296
0.0482396
0.0581113
0.0693569
0.0790668
0.0816371
0.0733181
0.0557174
0.0347787
0.015853
0.000208902
-0.0140056
-0.029146
-0.0453336
-0.0601009
-0.0703145
-0.0742213
-0.0723807
-0.0667329
-0.0590396
-0.0500859
-0.0401621
-0.0298057
-0.0205576
-0.0139321
-0.0098387
-0.00706735
-0.00569422
-0.00679867
-0.00930087
-0.0103737
-0.00926149
-0.00774853
-0.00642697
-0.00435533
-0.00210117
-0.00145751
-0.00186804
-0.000998358
-0.000640193
-0.000683803
0.000538931
0.000324438
-0.00188726
-0.00388874
-0.00491315
-0.00621383
-0.00740402
-0.00651459
-0.00391925
-0.00227686
-0.00278158
-0.00449076
-0.0074281
-0.0129551
-0.0215746
-0.0321784
-0.0433812
-0.0545495
-0.0652014
-0.0742172
-0.0794024
-0.0786018
-0.0711988
-0.0587745
-0.0438764
-0.0283402
-0.0119864
0.00678283
0.0287183
0.0518014
0.0707015
0.0800017
0.0786313
0.0705323
0.0612205
0.0535469
0.045335
0.0320287
0.0117137
-0.0121074
-0.0324902
-0.0436828
-0.0447925
-0.0401699
-0.0360831
-0.0360703
-0.0394532
-0.0428045
-0.0428042
-0.0394523
-0.0360694
-0.0360826
-0.0401701
-0.0447933
-0.0436839
-0.0324912
-0.012108
0.0117137
0.0320291
0.0453355
0.0535473
0.0612213
0.0705337
0.0786337
0.080005
0.0707052
0.0518049
0.0287212
0.006785
-0.0119851
-0.02834
-0.0438775
-0.058777
-0.0712024
-0.078606
-0.0794069
-0.0742213
-0.0652048
-0.0545517
-0.0433818
-0.0321775
-0.0215727
-0.0129528
-0.00742602
-0.00448897
-0.00278
-0.00227562
-0.00391891
-0.00651561
-0.00740609
-0.00621589
-0.00491417
-0.00388843
-0.00188609
0.000325659
0.000539587
-0.00068374
-0.000640264
-4.82903e-05
0.000967056
0.00285985
0.00291134
0.000898309
-0.000619199
-0.000970249
-0.00195757
-0.00352972
-0.00350897
-0.00162364
-9.03547e-06
0.00014837
-0.000486719
-0.00213442
-0.00620618
-0.0134688
-0.0232222
-0.0343729
-0.0463788
-0.0587698
-0.0703112
-0.0786018
-0.0814254
-0.0780915
-0.0697795
-0.0581038
-0.0439708
-0.0270315
-0.00644098
0.0174915
0.0421507
0.0624368
0.0735452
0.0747643
0.0698464
0.0638281
0.0592819
0.0538791
0.0429154
0.0243017
0.00116874
-0.0198767
-0.0330935
-0.0375163
-0.0372318
-0.0379637
-0.0426513
-0.0498502
-0.0553097
-0.0553094
-0.0498494
-0.0426503
-0.037963
-0.0372316
-0.0375168
-0.0330944
-0.0198776
0.00116842
0.0243021
0.0429164
0.0538803
0.0592832
0.0638296
0.0698484
0.0747671
0.0735487
0.0624405
0.042154
0.0174938
-0.0064398
-0.0270316
-0.0439722
-0.0581065
-0.0697834
-0.0780963
-0.0814303
-0.0786061
-0.0703145
-0.058772
-0.0463798
-0.0343727
-0.0232207
-0.0134664
-0.00620336
-0.00213196
-0.000485094
0.000149183
-8.75673e-06
-0.00162382
-0.00350972
-0.00353091
-0.00195871
-0.000970844
-0.000619048
0.000899133
0.00291251
0.00286091
0.000967672
-4.81108e-05
0.000454358
0.0022548
0.00446723
0.00461958
0.0029392
0.00212565
0.00250144
0.00169883
-0.000469945
-0.00155352
-0.000581423
0.000904573
0.00174207
0.00228908
0.00220894
0.000197012
-0.00471366
-0.0123717
-0.022179
-0.0338048
-0.0468513
-0.0600988
-0.0711988
-0.0780915
-0.0800227
-0.0775095
-0.0708631
-0.0597878
-0.0436971
-0.0225063
0.0024997
0.028323
0.0502913
0.0641885
0.0693427
0.0688284
0.0668055
0.0654365
0.0624143
0.0532296
0.0359215
0.0133519
-0.00826448
-0.0232854
-0.0306792
-0.0341701
-0.0388537
-0.0471664
-0.0571624
-0.0640961
-0.0640957
-0.0571612
-0.0471648
-0.0388521
-0.0341688
-0.0306786
-0.0232855
-0.00826485
0.0133517
0.0359219
0.0532308
0.062416
0.0654383
0.0668075
0.0688306
0.0693455
0.0641918
0.0502947
0.0283258
0.00250126
-0.0225063
-0.0436987
-0.0597908
-0.0708672
-0.0775144
-0.0800278
-0.0780963
-0.0712024
-0.0601009
-0.046852
-0.0338044
-0.0221778
-0.0123698
-0.00471112
0.000199791
0.00221126
0.00229029
0.00174203
0.000903756
-0.000582405
-0.00155425
-0.000470257
0.00169889
0.00250164
0.00212583
0.00293961
0.00462051
0.00446852
0.00225589
0.000454775
0.000479167
0.00219349
0.00413455
0.00418419
0.00286662
0.00273047
0.00367194
0.00300318
0.000518619
-0.00111809
-0.000493775
0.00124427
0.00295056
0.00480596
0.00655385
0.00709911
0.00521433
0.000336923
-0.00751557
-0.0181443
-0.0311239
-0.0453329
-0.0587745
-0.0697795
-0.0775095
-0.0815573
-0.0807003
-0.0734204
-0.0590169
-0.0382154
-0.0130962
0.0132768
0.036864
0.0539562
0.0635893
0.0677565
0.069519
0.0706656
0.069186
0.0611098
0.0448199
0.0229352
0.00122429
-0.0148177
-0.0240874
-0.029943
-0.0369426
-0.0472435
-0.058696
-0.0663446
-0.0663439
-0.0586941
-0.0472409
-0.0369398
-0.0299405
-0.0240856
-0.0148166
0.00122476
0.0229355
0.0448206
0.061111
0.0691877
0.0706676
0.0695211
0.0677587
0.0635918
0.0539588
0.0368664
0.0132786
-0.0130958
-0.0382167
-0.0590199
-0.0734248
-0.0807055
-0.0815625
-0.0775144
-0.0697834
-0.058777
-0.0453336
-0.031123
-0.0181424
-0.00751324
0.000339422
0.00521688
0.00710152
0.00655563
0.00480655
0.00294977
0.00124258
-0.000495532
-0.00111912
0.00051866
0.00300401
0.00367278
0.00273079
0.00286671
0.00418472
0.00413566
0.00219461
0.000479625
1.11844e-05
0.000836758
0.00213485
0.00208338
0.0011846
0.0015943
0.00290688
0.00249178
0.000305265
-0.00101242
-3.76104e-05
0.00220519
0.00464927
0.00754022
0.010909
0.0138905
0.0148999
0.0126235
0.00662724
-0.002778
-0.0150023
-0.0291465
-0.0438764
-0.0581038
-0.0708631
-0.0807003
-0.0849567
-0.0812113
-0.0689091
-0.0495529
-0.0256736
-3.33257e-06
0.0242483
0.043821
0.0572577
0.065311
0.0699792
0.0728453
0.072421
0.0654192
0.0505438
0.0300705
0.00924714
-0.00662548
-0.016386
-0.0230756
-0.0308488
-0.041756
-0.0536239
-0.0614356
-0.0614348
-0.0536217
-0.0417527
-0.0308452
-0.0230721
-0.0163831
-0.00662341
0.00924857
0.0300716
0.0505449
0.0654206
0.0724227
0.0728472
0.0699811
0.0653129
0.0572594
0.0438225
0.0242493
-3.18653e-06
-0.0256746
-0.0495554
-0.0689131
-0.0812165
-0.0849623
-0.0807055
-0.0708672
-0.0581065
-0.0438775
-0.029146
-0.0150003
-0.00277498
0.00663057
0.0126267
0.0149026
0.0138925
0.0109102
0.00754018
0.00464801
0.00220315