/*--------------------------------*- C++ -*----------------------------------*\
  =========                 |
  \\      /  F ield         | OpenFOAM: The Open Source CFD Toolbox
   \\    /   O peration     | Website:  https://openfoam.org
    \\  /    A nd           | Version:  10
     \\/     M anipulation  |
\*---------------------------------------------------------------------------*/
FoamFile
{
    format      ascii;
    class       volScalarField;
    location    "61";
    object      h_0;
}
// * * * * * * * * * * * * * * * * * * * * * * * * * * * * * * * * * * * * * //

dimensions      [0 1 0 0 0 0 0];

internalField   nonuniform List<scalar> 
10000
(
0.000598417
0.00175872
0.0027348
0.00330324
0.00340389
0.00317254
0.00276183
0.00222596
0.00148884
0.000468716
-0.000724243
-0.00175825
-0.00243017
-0.00281832
-0.00297746
-0.00276356
-0.00217588
-0.0015556
-0.00119841
-0.00110341
-0.00109334
-0.00098966
-0.000632982
-4.08453e-05
0.000461455
0.000484874
1.64147e-05
-0.000497857
-0.000533584
1.15125e-05
0.000680982
0.000953293
0.000736599
0.000511333
0.000857229
0.00175153
0.00251869
0.00241899
0.00116404
-0.000808028
-0.00261414
-0.00357972
-0.00356873
-0.00287694
-0.00193575
-0.00102096
-0.000183606
0.000604706
0.0012815
0.00168315
0.00168314
0.00128146
0.000604649
-0.000183678
-0.00102103
-0.0019358
-0.00287695
-0.0035687
-0.00357967
-0.00261411
-0.000808062
0.00116394
0.00241887
0.00251863
0.00175162
0.00085748
0.000511655
0.000736806
0.000953202
0.000680551
1.08979e-05
-0.000534099
-0.000498023
1.66483e-05
0.000485333
0.000461868
-4.06718e-05
-0.000633058
-0.000989833
-0.00109342
-0.00110332
-0.00119821
-0.0015555
-0.00217614
-0.00276428
-0.0029785
-0.00281939
-0.00243097
-0.00175855
-0.000723977
0.000469436
0.00148979
0.00222698
0.00276285
0.00317356
0.00340494
0.0033043
0.00273573
0.00175935
0.000598622
0.00175872
0.00518487
0.00810627
0.00986103
0.0102275
0.00954388
0.00822212
0.00642763
0.00399342
0.000763252
-0.00287043
-0.00592721
-0.00786161
-0.00896882
-0.00945118
-0.00887474
-0.00716154
-0.00520535
-0.00382201
-0.00305902
-0.00252957
-0.00185876
-0.000675125
0.000978823
0.00226594
0.00219997
0.000842704
-0.000506979
-0.000417598
0.00127851
0.00317481
0.00377198
0.00291288
0.00211946
0.00312911
0.0058237
0.00811574
0.00773944
0.00383103
-0.00226104
-0.00784492
-0.010855
-0.0108638
-0.00877384
-0.00592063
-0.00317548
-0.000715341
0.00155022
0.00347076
0.00460598
0.00460591
0.00347057
0.00154995
-0.000715606
-0.00317568
-0.00592073
-0.00877384
-0.0108637
-0.0108549
-0.00784484
-0.00226104
0.00383093
0.00773928
0.00811564
0.00582383
0.00312955
0.00212011
0.00291338
0.00377192
0.00317403
0.00127727
-0.000418688
-0.00050733
0.000843263
0.00220109
0.00226703
0.000979426
-0.000675073
-0.00185898
-0.0025297
-0.00305888
-0.00382171
-0.00520536
-0.0071624
-0.0088767
-0.00945394
-0.0089717
-0.00786388
-0.00592828
-0.00287005
0.000764917
0.00399589
0.00643047
0.00822509
0.00954696
0.0102307
0.0098642
0.00810901
0.00518669
0.00175934
0.0027348
0.00810627
0.0127862
0.0157185
0.0164415
0.0153447
0.0130046
0.00971537
0.00536127
-0.00010322
-0.00590799
-0.0105294
-0.0132879
-0.014861
-0.0156915
-0.0150551
-0.012616
-0.00949491
-0.00683478
-0.0048138
-0.00311462
-0.00146185
0.000541648
0.00287094
0.0044747
0.00412862
0.00212496
0.000462051
0.00113579
0.00409545
0.00696412
0.00745514
0.0056084
0.00411923
0.00582776
0.0104106
0.0142827
0.013598
0.00693314
-0.00341835
-0.0129329
-0.0181138
-0.0182052
-0.0147119
-0.00990972
-0.00532187
-0.00129433
0.00231687
0.00532355
0.00709137
0.00709119
0.0053231
0.00231631
-0.00129482
-0.00532217
-0.00990983
-0.0147119
-0.0182051
-0.0181137
-0.0129328
-0.00341813
0.0069334
0.0135982
0.0142827
0.0104105
0.00582782
0.00411954
0.00560885
0.00745536
0.00696379
0.00409461
0.00113489
0.000461688
0.00212543
0.00412974
0.00447599
0.00287199
0.000542283
-0.00146156
-0.00311455
-0.00481388
-0.00683505
-0.00949566
-0.0126176
-0.0150578
-0.015695
-0.0148647
-0.0132911
-0.0105313
-0.00590811
-0.000101496
0.00536447
0.00971953
0.0130094
0.0153498
0.0164467
0.0157236
0.0127904
0.00810901
0.00273571
0.00330324
0.00986103
0.0157185
0.0195342
0.0205715
0.019138
0.0159
0.0113073
0.00541869
-0.00158159
-0.00856261
-0.0137015
-0.0164786
-0.0181122
-0.0193433
-0.0191648
-0.0168261
-0.013342
-0.00996684
-0.00703235
-0.00443304
-0.00209884
0.000341682
0.00293765
0.00463074
0.00416347
0.00204712
0.000718173
0.00239792
0.00664357
0.010235
0.0103546
0.00744747
0.00537475
0.00791162
0.0144484
0.019964
0.0191153
0.00997346
-0.00428949
-0.0174748
-0.0247461
-0.0249978
-0.0202411
-0.0135964
-0.00719375
-0.0015638
0.00343458
0.00754716
0.00995867
0.00995844
0.00754658
0.00343388
-0.00156438
-0.00719409
-0.0135966
-0.0202412
-0.0249979
-0.0247463
-0.0174746
-0.00428898
0.00997425
0.0191161
0.0199642
0.0144481
0.007911
0.00537431
0.0074475
0.010355
0.0102353
0.00664349
0.00239753
0.000717825
0.00204717
0.00416401
0.00463169
0.00293883
0.000342886
-0.0020979
-0.00443273
-0.00703289
-0.00996815
-0.0133439
-0.0168285
-0.0191677
-0.0193465
-0.0181155
-0.0164816
-0.0137036
-0.00856332
-0.00158033
0.00542195
0.0113122
0.015906
0.0191448
0.0205784
0.0195406
0.0157235
0.00986419
0.00330428
0.00340389
0.0102275
0.0164415
0.0205715
0.0216555
0.0198703
0.0159577
0.0105515
0.00391745
-0.00356295
-0.0105497
-0.015202
-0.017349
-0.0187095
-0.0202332
-0.0206633
-0.0188632
-0.0156367
-0.0122799
-0.00927108
-0.00663635
-0.00431668
-0.00183292
0.000954421
0.00296346
0.00283946
0.00113055
0.000465591
0.0031394
0.0083926
0.0124499
0.0121884
0.00846787
0.00607097
0.00942296
0.0176332
0.0245269
0.0235427
0.0123519
-0.00517196
-0.0215008
-0.0306924
-0.0312875
-0.0256227
-0.0174459
-0.00936093
-0.00207884
0.004442
0.00978996
0.0129275
0.0129273
0.00978944
0.00444138
-0.00207936
-0.00936127
-0.0174461
-0.025623
-0.0312879
-0.0306927
-0.0215007
-0.00517127
0.012353
0.0235438
0.0245274
0.0176327
0.00942188
0.00606994
0.00846746
0.0121887
0.0124504
0.00839297
0.0031394
0.000465398
0.00113042
0.00283955
0.00296389
0.000955258
-0.00183175
-0.00431561
-0.00663602
-0.00927198
-0.012282
-0.0156395
-0.0188662
-0.0206662
-0.0202356
-0.0187116
-0.0173509
-0.0152037
-0.0105507
-0.00356225
0.00392028
0.0105564
0.0159643
0.0198779
0.0216631
0.0205784
0.0164467
0.0102307
0.00340491
0.00317254
0.00954388
0.0153447
0.019138
0.0198703
0.0176236
0.0132404
0.00753163
0.000878808
-0.00631824
-0.0127218
-0.0166411
-0.0181854
-0.0192544
-0.0207602
-0.021287
-0.0195703
-0.0163719
-0.0131268
-0.0104557
-0.00831679
-0.00634493
-0.00380119
-0.000543687
0.00215575
0.00270135
0.00153984
0.00139325
0.00465783
0.010466
0.0147945
0.0143476
0.0102443
0.0077961
0.0117393
0.0209628
0.0285453
0.0271029
0.0140618
-0.00619816
-0.0252144
-0.0362152
-0.0374015
-0.0312546
-0.0219324
-0.012386
-0.00350954
0.00454884
0.0111534
0.0150333
0.0150331
0.0111529
0.00454819
-0.00351008
-0.0123863
-0.0219327
-0.0312548
-0.0374019
-0.0362155
-0.0252143
-0.0061975
0.014063
0.0271041
0.0285459
0.0209624
0.0117382
0.00779497
0.0102437
0.0143477
0.014795
0.0104664
0.00465809
0.0013935
0.00154017
0.00270166
0.00215593
-0.00054353
-0.00380089
-0.00634456
-0.00831678
-0.0104566
-0.0131288
-0.0163746
-0.0195731
-0.0212894
-0.0207619
-0.0192555
-0.0181864
-0.0166422
-0.0127226
-0.00631796
0.000880932
0.00753584
0.0132465
0.0176309
0.0198778
0.0191447
0.0153498
0.00954693
0.00317353
0.00276183
0.00822212
0.0130046
0.0159
0.0159577
0.0132404
0.00869868
0.00325022
-0.00279972
-0.00928847
-0.01507
-0.0186209
-0.0200696
-0.0210668
-0.0222489
-0.0222191
-0.0199439
-0.0163617
-0.0130999
-0.0108504
-0.00931351
-0.00762648
-0.00480648
-0.000894384
0.00252193
0.00363485
0.00285455
0.00301265
0.00661796
0.0127993
0.0174722
0.0172422
0.0133253
0.0111939
0.0155769
0.0251862
0.032732
0.0304033
0.015566
-0.00702645
-0.0283079
-0.040932
-0.0428022
-0.036434
-0.0262502
-0.0154657
-0.00516039
0.00428623
0.0120113
0.016552
0.0165516
0.0120104
0.00428522
-0.00516119
-0.0154661
-0.0262503
-0.036434
-0.0428023
-0.0409321
-0.0283079
-0.00702598
0.015567
0.0304043
0.0327325
0.0251858
0.0155759
0.011193
0.013325
0.0172425
0.0174728
0.0127997
0.00661834
0.0030133
0.00285549
0.00363567
0.0025221
-0.000894998
-0.00480752
-0.00762744
-0.00931423
-0.0108511
-0.0131009
-0.0163631
-0.0199458
-0.022221
-0.0222503
-0.0210676
-0.02007
-0.0186214
-0.0150704
-0.00928818
-0.00279818
0.00325335
0.00870345
0.0132465
0.0159643
0.015906
0.0130094
0.00822507
0.00276282
0.00222596
0.00642763
0.00971537
0.0113073
0.0105515
0.00753163
0.00325022
-0.00137066
-0.00628116
-0.0117475
-0.0169125
-0.0203525
-0.0219802
-0.0229427
-0.0235642
-0.0227165
-0.0198482
-0.0160839
-0.0130759
-0.011431
-0.0105324
-0.00909127
-0.00608107
-0.00187406
0.00171706
0.00296226
0.00243699
0.0030329
0.00717798
0.0139039
0.0191637
0.0195982
0.0164742
0.0151521
0.0200621
0.0297227
0.0367723
0.033331
0.0168936
-0.00750629
-0.0304821
-0.0443533
-0.0467882
-0.0402686
-0.0293732
-0.01752
-0.005978
0.00463335
0.0132625
0.018327
0.0183265
0.0132613
0.00463185
-0.00597914
-0.0175204
-0.0293729
-0.0402681
-0.0467878
-0.0443532
-0.0304821
-0.00750606
0.0168942
0.0333317
0.0367726
0.0297223
0.0200612
0.0151513
0.0164742
0.0195988
0.0191646
0.0139044
0.00717824
0.00303336
0.00243782
0.00296306
0.00171709
-0.00187523
-0.00608316
-0.00909345
-0.010534
-0.0114316
-0.0130758
-0.0160838
-0.0198485
-0.0227173
-0.0235653
-0.0229435
-0.0219805
-0.0203525
-0.0169122
-0.0117467
-0.00627975
-0.00136852
0.00325334
0.00753583
0.0105564
0.0113122
0.00971952
0.00643045
0.00222696
0.00148884
0.00399342
0.00536127
0.00541869
0.00391745
0.000878808
-0.00279972
-0.00628116
-0.00981459
-0.0141011
-0.0185416
-0.0217393
-0.0233255
-0.0239766
-0.023865
-0.0223231
-0.0192784
-0.0157929
-0.0132432
-0.0120623
-0.0114957
-0.0101534
-0.00722783
-0.00341014
-0.000422099
0.000500343
0.00026192
0.00160968
0.00654767
0.0138643
0.0196934
0.0209501
0.0189872
0.0188247
0.0243224
0.0337647
0.0399722
0.035317
0.017562
-0.00810727
-0.0322667
-0.0471074
-0.0500779
-0.0435247
-0.0320629
-0.0192813
-0.00668768
0.00483741
0.0141055
0.0195126
0.0195121
0.0141042
0.00483579
-0.00668891
-0.0192817
-0.0320625
-0.0435239
-0.0500773
-0.0471072
-0.0322667
-0.00810722
0.0175625
0.0353176
0.0399725
0.0337643
0.0243216
0.018824
0.0189874
0.020951
0.0196946
0.013865
0.00654763
0.00160936
0.000261772
0.000500359
-0.000422438
-0.00341136
-0.00722992
-0.0101558
-0.0114975
-0.0120629
-0.0132426
-0.0157917
-0.0192774
-0.0223229
-0.0238655
-0.0239773
-0.0233259
-0.021739
-0.0185406
-0.0140996
-0.00981302
-0.00627975
-0.00279819
0.000880916
0.00392026
0.00542193
0.00536445
0.00399588
0.00148978
0.000468716
0.000763252
-0.00010322
-0.00158159
-0.00356295
-0.00631824
-0.00928847
-0.0117475
-0.0141011
-0.0173035
-0.0209193
-0.0235858
-0.0247665
-0.0248703
-0.0240821
-0.0221723
-0.0192854
-0.0160882
-0.013494
-0.011891
-0.0107702
-0.00904306
-0.00628389
-0.00332591
-0.00143958
-0.00107436
-0.00100674
0.0010873
0.00653424
0.0139154
0.019831
0.0217508
0.021092
0.0222535
0.0282648
0.0371674
0.0422181
0.0363126
0.0175267
-0.00901044
-0.0341243
-0.0500137
-0.0538182
-0.0475642
-0.0357521
-0.0221431
-0.00860285
0.00366175
0.0133541
0.0189389
0.0189385
0.013353
0.00366047
-0.0086038
-0.0221434
-0.0357517
-0.0475636
-0.0538177
-0.0500137
-0.0341247
-0.00901062
0.0175271
0.0363134
0.0422187
0.0371673
0.0282642
0.0222528
0.0210921
0.0217517
0.0198323
0.0139161
0.0065339
0.00108613
-0.0010081
-0.00107541
-0.00144032
-0.00332666
-0.00628491
-0.00904428
-0.0107712
-0.0118914
-0.0134934
-0.0160869
-0.0192838
-0.0221711
-0.0240817
-0.0248705
-0.0247667
-0.0235856
-0.0209183
-0.0173019
-0.0140996
-0.0117467
-0.0092882
-0.00631799
-0.00356227
-0.00158035
-0.000101514
0.000764905
0.00046943
-0.000724243
-0.00287043
-0.00590799
-0.00856261
-0.0105497
-0.0127218
-0.01507
-0.0169125
-0.0185416
-0.0209193
-0.0237454
-0.0258258
-0.0266497
-0.0265247
-0.0256406
-0.0239577
-0.021484
-0.0182935
-0.0148794
-0.0118396
-0.00923909
-0.00652433
-0.00364489
-0.0013818
-0.000399994
-0.000379091
3.3008e-05
0.00253052
0.00776208
0.0143796
0.0198191
0.0223143
0.0232046
0.025936
0.0324877
0.0406946
0.044491
0.0375088
0.0181035
-0.00890568
-0.0348709
-0.0520851
-0.0572408
-0.051813
-0.0399806
-0.0256373
-0.0111188
0.00194479
0.0120923
0.0178425
0.0178422
0.0120915
0.00194394
-0.0111193
-0.0256372
-0.0399801
-0.0518124
-0.0572406
-0.0520855
-0.0348717
-0.00890622
0.0181037
0.0375096
0.0444921
0.0406952
0.0324877
0.0259356
0.0232045
0.0223149
0.01982
0.01438
0.00776144
0.00252884
3.09026e-05
-0.000380859
-0.000400965
-0.00138196
-0.00364451
-0.0065238
-0.00923863
-0.0118393
-0.0148789
-0.0182927
-0.0214828
-0.0239563
-0.0256395
-0.0265241
-0.0266495
-0.0258257
-0.0237449
-0.0209183
-0.0185406
-0.0169122
-0.0150704
-0.0127226
-0.0105507
-0.00856334
-0.00590812
-0.00287005
-0.000723975
-0.00175825
-0.00592721
-0.0105294
-0.0137015
-0.015202
-0.0166411
-0.0186209
-0.0203525
-0.0217393
-0.0235858
-0.0258258
-0.0276342
-0.0286438
-0.0290483
-0.028882
-0.0280278
-0.0261755
-0.0228791
-0.0184054
-0.0136936
-0.00939496
-0.00542698
-0.00199059
0.000255359
0.00111968
0.0014037
0.00232197
0.00486606
0.00920271
0.0144216
0.0191024
0.0223285
0.0251506
0.0297672
0.0369782
0.0444995
0.0471594
0.0394941
0.0200865
-0.00680012
-0.0333148
-0.0519573
-0.058891
-0.0548353
-0.0434038
-0.0284962
-0.0129481
0.00111467
0.0119454
0.0179881
0.0179878
0.0119448
0.00111404
-0.0129484
-0.0284958
-0.043403
-0.0548346
-0.0588909
-0.051958
-0.0333159
-0.006801
0.0200865
0.0394951
0.047161
0.0445008
0.0369787
0.029767
0.0251501
0.0223282
0.0191024
0.0144213
0.00920174
0.00486433
0.00231992
0.001402
0.00111888
0.000255678
-0.0019893
-0.00542516
-0.00939318
-0.0136924
-0.0184048
-0.022879
-0.0261753
-0.0280271
-0.0288808
-0.0290471
-0.028643
-0.0276339
-0.0258257
-0.0235856
-0.021739
-0.0203525
-0.0186214
-0.0166422
-0.0152038
-0.0137037
-0.0105313
-0.00592828
-0.00175854
-0.00243017
-0.00786161
-0.0132879
-0.0164786
-0.017349
-0.0181854
-0.0200696
-0.0219802
-0.0233255
-0.0247665
-0.0266497
-0.0286438
-0.030444
-0.0319373
-0.0328501
-0.0329348
-0.031684
-0.028404
-0.0232871
-0.0174832
-0.0119407
-0.0068322
-0.00251894
0.000399203
0.00196222
0.00313618
0.00480071
0.00725872
0.0103846
0.013941
0.0177825
0.0218257
0.0266625
0.0330876
0.0407311
0.0473435
0.0488502
0.0408378
0.0220691
-0.00397133
-0.0304909
-0.0503468
-0.0591745
-0.0568205
-0.0461535
-0.030969
-0.0145937
0.000350686
0.0118033
0.0180956
0.0180954
0.0118028
0.000350094
-0.014594
-0.0309687
-0.0461528
-0.0568197
-0.0591742
-0.0503472
-0.0304918
-0.00397214
0.022069
0.0408388
0.0488519
0.0473451
0.0407318
0.0330873
0.0266614
0.0218245
0.0177813
0.01394
0.0103835
0.0072574
0.00479946
0.00313539
0.00196221
0.000400056
-0.0025173
-0.00683003
-0.0119384
-0.0174814
-0.0232863
-0.0284042
-0.0316847
-0.0329351
-0.0328495
-0.0319361
-0.0304427
-0.028643
-0.0266495
-0.0247668
-0.0233259
-0.0219806
-0.0200701
-0.0181864
-0.0173509
-0.0164816
-0.0132911
-0.00786387
-0.00243096
-0.00281832
-0.00896882
-0.014861
-0.0181122
-0.0187095
-0.0192544
-0.0210668
-0.0229427
-0.0239766
-0.0248703
-0.0265247
-0.0290483
-0.0319373
-0.0345361
-0.0362709
-0.0369682
-0.0362065
-0.0332621
-0.0282033
-0.022072
-0.0157846
-0.00966394
-0.00427812
-0.000264815
0.00251272
0.00502723
0.00774246
0.0102932
0.0123274
0.0143091
0.0173076
0.0219734
0.0283377
0.0358029
0.0430098
0.0479995
0.0480002
0.0397517
0.0221147
-0.00242031
-0.028334
-0.0489598
-0.0594412
-0.0587452
-0.0489899
-0.0339013
-0.0173212
-0.00226706
0.00908306
0.0151717
0.0151715
0.00908252
-0.00226773
-0.0173217
-0.0339014
-0.0489895
-0.0587444
-0.0594405
-0.0489596
-0.0283341
-0.00242061
0.0221148
0.0397524
0.0480014
0.0480006
0.04301
0.035802
0.0283359
0.0219713
0.0173058
0.0143078
0.0123265
0.0102927
0.00774244
0.00502784
0.00251395
-0.000263156
-0.00427627
-0.00966204
-0.0157827
-0.0220703
-0.0282024
-0.0332623
-0.0362075
-0.0369693
-0.0362713
-0.0345355
-0.0319361
-0.0290471
-0.0265241
-0.0248705
-0.0239773
-0.0229435
-0.0210676
-0.0192555
-0.0187116
-0.0181155
-0.0148647
-0.0089717
-0.00281938
-0.00297746
-0.00945118
-0.0156915
-0.0193433
-0.0202332
-0.0207602
-0.0222489
-0.0235642
-0.023865
-0.0240821
-0.0256406
-0.028882
-0.0328501
-0.0362709
-0.0384875
-0.0397038
-0.0397511
-0.0378238
-0.0336093
-0.027738
-0.0209618
-0.0138503
-0.00728907
-0.00195313
0.00243252
0.00680974
0.0111615
0.0144177
0.0159679
0.016888
0.0192916
0.0244049
0.0316348
0.0391088
0.0447728
0.0472714
0.0453162
0.0368433
0.0207038
-0.00177506
-0.026474
-0.0472808
-0.0589209
-0.0595756
-0.0507393
-0.0361798
-0.0202535
-0.00619374
0.00401928
0.00927458
0.00927436
0.00401867
-0.00619455
-0.0202542
-0.0361802
-0.0507391
-0.0595747
-0.0589198
-0.0472798
-0.0264734
-0.00177482
0.0207039
0.0368436
0.0453165
0.0472715
0.0447722
0.0391072
0.0316325
0.0244024
0.0192897
0.0168871
0.0159678
0.0144183
0.0111627
0.00681155
0.00243487
-0.00195064
-0.00728694
-0.0138488
-0.0209608
-0.0277371
-0.0336088
-0.0378239
-0.039752
-0.0397051
-0.0384887
-0.0362713
-0.0328495
-0.0288808
-0.0256395
-0.0240817
-0.0238655
-0.0235653
-0.0222503
-0.0207619
-0.0202356
-0.0193465
-0.015695
-0.00945393
-0.00297849
-0.00276356
-0.00887474
-0.0150551
-0.0191648
-0.0206633
-0.021287
-0.0222191
-0.0227165
-0.0223231
-0.0221723
-0.0239577
-0.0280278
-0.0329348
-0.0369682
-0.0397038
-0.0419081
-0.0435762
-0.0435477
-0.0408659
-0.0356515
-0.0285791
-0.020604
-0.0129204
-0.00609395
0.000388303
0.0073497
0.0141477
0.018946
0.0208732
0.0215516
0.0239496
0.0296732
0.0374433
0.0442547
0.0476441
0.0471003
0.0428996
0.0341687
0.0196917
-0.000415561
-0.0234535
-0.0439301
-0.0562825
-0.0580437
-0.0501984
-0.0365708
-0.0219299
-0.00956678
-0.00108636
0.00300026
0.00300003
-0.00108696
-0.00956752
-0.0219305
-0.0365708
-0.0501978
-0.0580425
-0.0562811
-0.0439288
-0.0234528
-0.000415402
0.0196914
0.0341682
0.0428991
0.0470996
0.047643
0.0442529
0.0374411
0.0296711
0.0239483
0.0215516
0.0208743
0.0189477
0.0141497
0.00735215
0.000391118
-0.00609109
-0.0129181
-0.0206028
-0.028579
-0.0356519
-0.0408664
-0.0435483
-0.043577
-0.0419092
-0.0397051
-0.0369693
-0.0329351
-0.0280271
-0.0239563
-0.0221711
-0.0223229
-0.0227174
-0.022221
-0.0212894
-0.0206661
-0.0191677
-0.0150578
-0.00887669
-0.00276427
-0.00217588
-0.00716154
-0.012616
-0.0168261
-0.0188632
-0.0195703
-0.0199439
-0.0198482
-0.0192784
-0.0192854
-0.021484
-0.0261755
-0.031684
-0.0362065
-0.0397511
-0.0435762
-0.0475816
-0.0500195
-0.0492614
-0.0450763
-0.0382166
-0.0299883
-0.0216575
-0.0134466
-0.00458691
0.00541611
0.0151117
0.0219173
0.0248324
0.0260439
0.0291967
0.0360527
0.0445669
0.0507042
0.051774
0.0481883
0.0417281
0.0326481
0.0196608
0.00174649
-0.0197117
-0.0398372
-0.0528505
-0.0556907
-0.0488627
-0.0362055
-0.0228214
-0.0120498
-0.00516447
-0.00213913
-0.00213916
-0.00516453
-0.0120498
-0.022821
-0.0362047
-0.0488615
-0.0556892
-0.0528491
-0.0398362
-0.0197115
0.00174585
0.0196596
0.0326467
0.0417269
0.0481872
0.051773
0.0507029
0.0445653
0.0360514
0.0291963
0.0260449
0.0248345
0.02192
0.0151144
0.0054187
-0.00458433
-0.0134441
-0.0216555
-0.0299876
-0.0382173
-0.0450778
-0.0492632
-0.050021
-0.0475826
-0.043577
-0.039752
-0.0362075
-0.0316848
-0.0261753
-0.0214829
-0.0192838
-0.0192774
-0.0198485
-0.0199458
-0.0195731
-0.0188662
-0.0168285
-0.0126176
-0.00716239
-0.00217613
-0.0015556
-0.00520535
-0.00949491
-0.013342
-0.0156367
-0.0163719
-0.0163617
-0.0160839
-0.0157929
-0.0160882
-0.0182935
-0.0228791
-0.028404
-0.0332621
-0.0378238
-0.0435477
-0.0500195
-0.0549249
-0.0562107
-0.0535595
-0.0478435
-0.0404544
-0.032366
-0.023291
-0.0123227
0.000468745
0.012767
0.0214449
0.0256196
0.0280551
0.0328232
0.0415592
0.0513694
0.0572944
0.056537
0.0503845
0.0419267
0.0323798
0.0203503
0.00381677
-0.0169152
-0.0373959
-0.0515062
-0.0555093
-0.0494534
-0.0372669
-0.0244832
-0.0146533
-0.00885735
-0.00660641
-0.00660603
-0.00885631
-0.0146518
-0.0244815
-0.0372652
-0.0494518
-0.0555079
-0.0515052
-0.0373956
-0.0169158
0.00381508
0.0203479
0.0323774
0.0419248
0.0503835
0.0565366
0.0572943
0.0513691
0.0415591
0.0328237
0.0280568
0.0256225
0.0214483
0.0127701
0.000471275
-0.0123207
-0.0232895
-0.0323651
-0.0404544
-0.0478448
-0.0535618
-0.0562135
-0.0549274
-0.050021
-0.0435483
-0.0378239
-0.0332623
-0.0284043
-0.022879
-0.0182927
-0.0160869
-0.0157917
-0.0160838
-0.0163631
-0.0163746
-0.0156395
-0.0133439
-0.00949565
-0.00520535
-0.0015555
-0.00119841
-0.00382201
-0.00683478
-0.00996684
-0.0122799
-0.0131268
-0.0130999
-0.0130759
-0.0132432
-0.013494
-0.0148794
-0.0184054
-0.0232871
-0.0282033
-0.0336093
-0.0408659
-0.0492614
-0.0562107
-0.0595897
-0.0591544
-0.0557465
-0.05046
-0.0436616
-0.0345329
-0.0222156
-0.00746431
0.00669529
0.0169315
0.0227048
0.02723
0.0346278
0.0460692
0.0577695
0.0640246
0.0620834
0.0540329
0.0440077
0.0339325
0.0222208
0.00600139
-0.0151732
-0.0369738
-0.0527338
-0.0579573
-0.0523315
-0.0400417
-0.0272085
-0.0177567
-0.0126615
-0.0109786
-0.0109779
-0.0126596
-0.0177541
-0.0272058
-0.0400394
-0.0523299
-0.0579563
-0.0527336
-0.0369743
-0.0151746
0.005999
0.0222178
0.0339294
0.0440055
0.054032
0.0620838
0.0640258
0.0577707
0.0460703
0.0346292
0.0272322
0.022708
0.0169352
0.00669864
-0.00746195
-0.0222144
-0.0345327
-0.0436622
-0.0504614
-0.0557486
-0.0591571
-0.0595928
-0.0562135
-0.0492632
-0.0408665
-0.0336088
-0.0282024
-0.0232863
-0.0184048
-0.0148789
-0.0134934
-0.0132426
-0.0130758
-0.0131009
-0.0131287
-0.0122819
-0.00996814
-0.00683505
-0.00382171
-0.00119821
-0.00110341
-0.00305902
-0.0048138
-0.00703235
-0.00927108
-0.0104557
-0.0108504
-0.011431
-0.0120623
-0.011891
-0.0118396
-0.0136936
-0.0174832
-0.022072
-0.027738
-0.0356515
-0.0450763
-0.0535595
-0.0591544
-0.0616478
-0.0615997
-0.0594928
-0.0549297
-0.0466434
-0.0339441
-0.018191
-0.0027979
0.00902424
0.0171277
0.0248477
0.0358832
0.0506449
0.0645443
0.0714382
0.0688275
0.0595182
0.0484079
0.0378788
0.0261124
0.00958994
-0.012588
-0.036046
-0.0535909
-0.0600763
-0.054964
-0.0427327
-0.0300155
-0.0210564
-0.0167095
-0.015588
-0.0155873
-0.0167074
-0.0210536
-0.0300126
-0.0427304
-0.0549626
-0.0600758
-0.0535913
-0.0360472
-0.0125897
0.00958756
0.0261095
0.0378761
0.0484059
0.0595177
0.0688285
0.0714403
0.0645468
0.0506473
0.0358855
0.0248503
0.0171309
0.00902771
-0.00279485
-0.0181891
-0.0339438
-0.0466445
-0.0549319
-0.0594956
-0.0616027
-0.0616507
-0.0591571
-0.0535618
-0.0450779
-0.0356519
-0.0277371
-0.0220703
-0.0174814
-0.0136924
-0.0118393
-0.0118914
-0.0120629
-0.0114316
-0.0108511
-0.0104566
-0.00927197
-0.00703288
-0.00481388
-0.00305888
-0.00110332
-0.00109334
-0.00252957
-0.00311462
-0.00443304
-0.00663635
-0.00831679
-0.00931351
-0.0105324
-0.0114957
-0.0107702
-0.00923909
-0.00939496
-0.0119407
-0.0157846
-0.0209618
-0.0285791
-0.0382166
-0.0478435
-0.0557465
-0.0615997
-0.0655147
-0.0672584
-0.0656745
-0.0591342
-0.0470929
-0.0312726
-0.0151152
-0.00150785
0.00965046
0.021384
0.0365597
0.0546915
0.0706319
0.0781877
0.0753059
0.0653909
0.0538207
0.043254
0.0316978
0.0152
-0.00744628
-0.0319329
-0.0508537
-0.0586904
-0.0547808
-0.0437347
-0.0323602
-0.0249391
-0.0220531
-0.0218294
-0.0218288
-0.0220516
-0.024937
-0.0323581
-0.0437331
-0.0547801
-0.0586906
-0.0508546
-0.0319342
-0.00744779
0.0151983
0.031696
0.0432522
0.0538196
0.065391
0.0753073
0.0781903
0.0706351
0.0546946
0.0365626
0.0213869
0.00965336
-0.00150511
-0.0151131
-0.0312717
-0.0470936
-0.0591365
-0.0656779
-0.0672624
-0.0655185
-0.0616027
-0.0557486
-0.0478448
-0.0382173
-0.028579
-0.0209608
-0.0157827
-0.0119384
-0.00939318
-0.00923863
-0.0107712
-0.0114975
-0.010534
-0.00931423
-0.00831678
-0.00663601
-0.00443273
-0.00311455
-0.00252971
-0.00109342
-0.00098966
-0.00185876
-0.00146185
-0.00209884
-0.00431668
-0.00634493
-0.00762648
-0.00909127
-0.0101534
-0.00904306
-0.00652433
-0.00542698
-0.0068322
-0.00966394
-0.0138503
-0.020604
-0.0299883
-0.0404544
-0.05046
-0.0594928
-0.0672584
-0.0729349
-0.0747361
-0.0707342
-0.060414
-0.0455685
-0.0293475
-0.0141933
6.40742e-05
0.0158028
0.034835
0.0558194
0.0733704
0.0815967
0.0789934
0.06939
0.0583746
0.0487387
0.0383604
0.0229566
0.000995275
-0.0235161
-0.0432987
-0.052691
-0.0509411
-0.042603
-0.0343213
-0.0300879
-0.0299332
-0.0312838
-0.0312834
-0.0299321
-0.0300865
-0.0343202
-0.0426025
-0.0509414
-0.0526918
-0.0432997
-0.023517
0.000994539
0.022956
0.0383598
0.0487381
0.0583745
0.0693907
0.0789953
0.0815997
0.0733739
0.0558229
0.0348381
0.0158055
6.63706e-05
-0.0141917
-0.0293469
-0.0455692
-0.0604161
-0.0707376
-0.0747403
-0.0729393
-0.0672624
-0.0594956
-0.0504614
-0.0404545
-0.0299876
-0.0206028
-0.0138488
-0.00966205
-0.00683004
-0.00542516
-0.00652379
-0.00904428
-0.0101558
-0.00909344
-0.00762744
-0.00634456
-0.0043156
-0.0020979
-0.00146156
-0.00185899
-0.000989833
-0.000632982
-0.000675125
0.000541648
0.000341682
-0.00183292
-0.00380119
-0.00480648
-0.00608107
-0.00722783
-0.00628389
-0.00364489
-0.00199059
-0.00251894
-0.00427812
-0.00728907
-0.0129204
-0.0216575
-0.032366
-0.0436616
-0.0549297
-0.0656745
-0.0747361
-0.0798998
-0.0790301
-0.0715535
-0.0590798
-0.0441604
-0.028606
-0.0122027
0.00665637
0.0286809
0.051794
0.0706441
0.0798696
0.078496
0.0705356
0.0614797
0.0540598
0.0459897
0.0326842
0.0122753
-0.0116448
-0.0320819
-0.0433208
-0.0445274
-0.040094
-0.0362896
-0.036587
-0.0402278
-0.0437292
-0.0437289
-0.040227
-0.0365861
-0.0362891
-0.0400942
-0.0445282
-0.043322
-0.0320829
-0.0116453
0.0122753
0.0326846
0.0459902
0.0540603
0.0614805
0.0705371
0.0784985
0.0798729
0.0706478
0.0517975
0.0286838
0.00665854
-0.0122014
-0.0286058
-0.0441615
-0.0590823
-0.0715571
-0.0790344
-0.0799043
-0.0747403
-0.065678
-0.0549319
-0.0436622
-0.0323651
-0.0216555
-0.0129182
-0.00728695
-0.00427628
-0.0025173
-0.0019893
-0.00364451
-0.0062849
-0.00722992
-0.00608315
-0.00480751
-0.00380088
-0.00183175
0.000342892
0.000542286
-0.000675076
-0.000633059
-4.08453e-05
0.000978823
0.00287094
0.00293765
0.000954421
-0.000543687
-0.000894384
-0.00187406
-0.00341014
-0.00332591
-0.0013818
0.000255359
0.000399203
-0.000264815
-0.00195313
-0.00609395
-0.0134466
-0.023291
-0.0345329
-0.0466434
-0.0591342
-0.0707342
-0.0790301
-0.0818273
-0.0784689
-0.0701467
-0.0584679
-0.0443185
-0.0273314
-0.00666343
0.0173392
0.0420211
0.0622727
0.07334
0.0745942
0.0698445
0.0640961
0.0598065
0.0545409
0.0435673
0.024844
0.00159551
-0.0195155
-0.032778
-0.0372844
-0.0371688
-0.0381643
-0.0431503
-0.0506028
-0.0562124
-0.0562121
-0.050602
-0.0431493
-0.0381636
-0.0371686
-0.0372848
-0.0327789
-0.0195164
0.00159519
0.0248444
0.0435683
0.0545422
0.0598078
0.0640976
0.0698465
0.074597
0.0733435
0.0622764
0.0420244
0.0173416
-0.00666224
-0.0273315
-0.0443198
-0.0584706
-0.0701507
-0.0784736
-0.0818322
-0.0790344
-0.0707376
-0.0591365
-0.0466445
-0.0345327
-0.0232895
-0.0134441
-0.0060911
-0.00195064
-0.000263161
0.000400054
0.00025568
-0.00138195
-0.00332665
-0.00341136
-0.00187523
-0.000894995
-0.000543532
0.000955259
0.00293883
0.00287199
0.000979422
-4.06734e-05
0.000461455
0.00226594
0.0044747
0.00463074
0.00296346
0.00215575
0.00252193
0.00171706
-0.000422099
-0.00143958
-0.000399994
0.00111968
0.00196222
0.00251272
0.00243252
0.000388303
-0.00458691
-0.0123227
-0.0222156
-0.0339441
-0.0470929
-0.060414
-0.0715535
-0.0784689
-0.0804242
-0.0779332
-0.0712931
-0.060198
-0.0440592
-0.0228014
0.00226103
0.0281074
0.0500634
0.0639532
0.0691723
0.068839
0.0670805
0.0659535
0.0630513
0.0538376
0.0364
0.0136972
-0.00799274
-0.02305
-0.0304994
-0.0341194
-0.0390254
-0.0476024
-0.0578293
-0.0649025
-0.0649021
-0.0578281
-0.0476007
-0.0390237
-0.0341181
-0.0304988
-0.02305
-0.00799309
0.013697
0.0364005
0.0538388
0.0630529
0.0659553
0.0670825
0.0688413
0.0691751
0.0639565
0.0500667
0.0281102
0.00226259
-0.0228014
-0.0440608
-0.060201
-0.0712972
-0.0779381
-0.0804293
-0.0784736
-0.0715571
-0.0604161
-0.0470936
-0.0339438
-0.0222144
-0.0123207
-0.00458434
0.000391113
0.00243487
0.00251395
0.00196221
0.00111889
-0.000400958
-0.00144031
-0.000422435
0.00171709
0.0025221
0.00215593
0.00296388
0.00463169
0.00447599
0.00226703
0.000461867
0.000484874
0.00219997
0.00412862
0.00416347
0.00283946
0.00270135
0.00363485
0.00296226
0.000500343
-0.00107436
-0.000379091
0.0014037
0.00313618
0.00502723
0.00680974
0.0073497
0.00541611
0.000468745
-0.00746431
-0.018191
-0.0312726
-0.0455685
-0.0590798
-0.0701467
-0.0779332
-0.0820162
-0.0811591
-0.0738458
-0.0593895
-0.0385306
-0.0133701
0.0130223
0.0366105
0.0537151
0.0634236
0.0677636
0.0697661
0.0711275
0.0697468
0.0616274
0.0451992
0.0231773
0.00139736
-0.0146626
-0.0239548
-0.0298952
-0.03707
-0.0475931
-0.0592457
-0.0670179
-0.0670173
-0.0592439
-0.0475905
-0.0370671
-0.0298927
-0.023953
-0.0146615
0.00139785
0.0231777
0.0451998
0.0616286
0.0697485
0.0711295
0.0697682
0.0677658
0.063426
0.0537176
0.0366129
0.013024
-0.0133697
-0.0385319
-0.0593925
-0.0738502
-0.0811642
-0.0820215
-0.0779381
-0.0701507
-0.0590823
-0.0455692
-0.0312717
-0.0181891
-0.00746196
0.000471268
0.0054187
0.00735215
0.00681156
0.00502784
0.0031354
0.00140201
-0.000380851
-0.00107541
0.000500362
0.00296306
0.00363567
0.00270165
0.00283955
0.00416401
0.00412974
0.00220109
0.000485331
1.64147e-05
0.000842704
0.00212496
0.00204712
0.00113055
0.00153984
0.00285455
0.00243699
0.00026192
-0.00100674
3.3008e-05
0.00232197
0.00480071
0.00774246
0.0111615
0.0141477
0.0151117
0.012767
0.00669529
-0.0027979
-0.0151152
-0.0293475
-0.0441604
-0.0584679
-0.0712931
-0.0811591
-0.0853955
-0.0815983
-0.0692406
-0.0498438
-0.0259479
-0.000273784
0.0239785
0.043567
0.057072
0.0652742
0.0701486
0.0732024
0.0728657
0.0658231
0.0508194
0.0302208
0.00934178
-0.00652881
-0.0162816
-0.0230178
-0.0309259
-0.0420205
-0.0540643
-0.0619876
-0.0619868
-0.054062
-0.0420172
-0.0309223
-0.0230143
-0.0162787
-0.0065267
0.00934323
0.0302219
0.0508205
0.0658245
0.0728674
0.0732043
0.0701505
0.0652761
0.0570737
0.0435684
0.0239794
-0.000273652
-0.025949
-0.0498463
-0.0692446
-0.0816034
-0.085401
-0.0811642
-0.0712972
-0.0584706
-0.0441615
-0.0293469
-0.0151131
-0.00279487
0.00669864
0.0127701
0.0151144
0.0141497
0.0111627
0.00774245
0.00479947
0.00231992
3.09111e-05
-0.0010081
0.000261774