/*--------------------------------*- C++ -*----------------------------------*\
  =========                 |
  \\      /  F ield         | OpenFOAM: The Open Source CFD Toolbox
   \\    /   O peration     | Website:  https://openfoam.org
    \\  /    A nd           | Version:  10
     \\/     M anipulation  |
\*---------------------------------------------------------------------------*/
FoamFile
{
    format      ascii;
    class       volScalarField;
    location    "16";
    object      h_0;
}
// * * * * * * * * * * * * * * * * * * * * * * * * * * * * * * * * * * * * * //

dimensions      [0 1 0 0 0 0 0];

internalField   nonuniform List<scalar> 
10000
(
1.04257e-05
3.95596e-05
9.7826e-05
0.00021958
0.000463188
0.00092139
0.0017267
0.00304326
0.00503512
0.00780518
0.0113124
0.0152933
0.0192293
0.0223976
0.0240147
0.0234356
0.0203386
0.0148237
0.00739285
-0.00116232
-0.00991035
-0.0179134
-0.0243277
-0.0284874
-0.0299945
-0.0288124
-0.0253265
-0.0203244
-0.0148724
-0.0101095
-0.00701858
-0.00624215
-0.0079902
-0.012053
-0.0178978
-0.0248113
-0.0320458
-0.0389384
-0.0449876
-0.0498843
-0.0535061
-0.0558865
-0.0571724
-0.0575802
-0.0573563
-0.0567465
-0.0559741
-0.0552265
-0.0546476
-0.0543339
-0.0543342
-0.0546482
-0.0552277
-0.0559757
-0.0567485
-0.0573588
-0.057583
-0.0571755
-0.0558897
-0.0535093
-0.0498873
-0.04499
-0.03894
-0.0320464
-0.0248108
-0.0178961
-0.0120502
-0.00798676
-0.00623849
-0.00701522
-0.0101069
-0.0148709
-0.0203243
-0.0253276
-0.0288145
-0.0299971
-0.02849
-0.0243301
-0.0179152
-0.00991128
-0.0011623
0.00739379
0.0148254
0.0203408
0.0234378
0.0240166
0.022399
0.01923
0.0152933
0.011312
0.00780463
0.00503454
0.00304276
0.00172632
0.000921133
0.000463029
0.00021949
9.77788e-05
3.95378e-05
1.04194e-05
3.95596e-05
0.000148387
0.000360337
0.000792084
0.00163435
0.00317777
0.00581737
0.0100108
0.0161659
0.0244548
0.0345914
0.0456614
0.0561119
0.0639746
0.0672975
0.0646458
0.0554841
0.0403011
0.0204662
-0.00207235
-0.0251043
-0.046408
-0.0639488
-0.0760921
-0.0818658
-0.0812155
-0.0751275
-0.0655112
-0.0548281
-0.0455715
-0.0397565
-0.0385709
-0.0422566
-0.0502147
-0.0612614
-0.0739424
-0.086823
-0.0987016
-0.108728
-0.116436
-0.121705
-0.124692
-0.125741
-0.125302
-0.123858
-0.121878
-0.119776
-0.117896
-0.116498
-0.115756
-0.115756
-0.116499
-0.117898
-0.119779
-0.121881
-0.123863
-0.125307
-0.125747
-0.124698
-0.121711
-0.116442
-0.108733
-0.0987054
-0.0868251
-0.0739424
-0.0612591
-0.0502103
-0.0422507
-0.0385643
-0.0397502
-0.0455665
-0.0548254
-0.0655111
-0.07513
-0.08122
-0.0818715
-0.0760981
-0.0639541
-0.0464119
-0.0251063
-0.00207226
0.0204684
0.0403051
0.0554893
0.0646514
0.0673025
0.0639784
0.056114
0.045662
0.0345908
0.0244534
0.0161644
0.0100094
0.00581626
0.00317698
0.00163385
0.000791789
0.000360179
0.000148312
3.95377e-05
9.7826e-05
0.000360337
0.000849898
0.00180554
0.00359134
0.00671899
0.0118158
0.0195027
0.0301684
0.0436739
0.0590958
0.0746517
0.0879245
0.0963694
0.0979356
0.0915492
0.0772719
0.0561358
0.0298188
0.000361246
-0.0299888
-0.058869
-0.0839787
-0.103415
-0.116094
-0.122047
-0.122425
-0.119159
-0.114415
-0.110062
-0.107314
-0.106632
-0.107829
-0.110307
-0.113309
-0.116124
-0.118215
-0.119263
-0.119162
-0.117974
-0.115875
-0.113103
-0.109916
-0.106567
-0.103285
-0.100265
-0.0976669
-0.0956138
-0.0941963
-0.0934733
-0.0934734
-0.0941968
-0.0956145
-0.097668
-0.100267
-0.103287
-0.10657
-0.109918
-0.113106
-0.115878
-0.117978
-0.119165
-0.119266
-0.118218
-0.116127
-0.11331
-0.110307
-0.107828
-0.10663
-0.107312
-0.11006
-0.114415
-0.11916
-0.122428
-0.122051
-0.116099
-0.103421
-0.0839834
-0.0588722
-0.0299902
0.000361847
0.0298214
0.0561401
0.0772777
0.0915558
0.0979421
0.0963749
0.0879283
0.0746535
0.0590958
0.0436726
0.0301664
0.0195007
0.011814
0.00671763
0.00359041
0.00180497
0.000849575
0.000360179
9.77786e-05
0.00021958
0.000792084
0.00180554
0.0036827
0.00700657
0.0125014
0.020908
0.0327316
0.0479028
0.065477
0.0835549
0.0995641
0.110871
0.11548
0.112482
0.102033
0.084961
0.0623112
0.035149
0.00468538
-0.0274888
-0.0593674
-0.0888518
-0.1143
-0.134973
-0.151082
-0.163421
-0.172814
-0.179689
-0.183965
-0.18523
-0.183053
-0.177267
-0.168116
-0.156239
-0.142543
-0.128025
-0.113611
-0.100043
-0.0878297
-0.0772464
-0.0683713
-0.0611388
-0.0553944
-0.0509416
-0.0475781
-0.0451189
-0.0434103
-0.0423355
-0.0418173
-0.0418172
-0.0423351
-0.0434096
-0.045118
-0.0475769
-0.0509401
-0.0553926
-0.0611369
-0.0683694
-0.0772447
-0.0878285
-0.100042
-0.113611
-0.128027
-0.142546
-0.156244
-0.168121
-0.177273
-0.183059
-0.185236
-0.18397
-0.179693
-0.172817
-0.163424
-0.151085
-0.134976
-0.114303
-0.0888539
-0.0593682
-0.0274882
0.00468726
0.0351519
0.0623149
0.0849656
0.102038
0.112488
0.115486
0.110876
0.0995675
0.0835565
0.0654767
0.0479013
0.0327294
0.0209058
0.0124995
0.00700513
0.00368174
0.00180497
0.000791789
0.000219489
0.000463188
0.00163435
0.00359134
0.00700657
0.0126908
0.0214747
0.0339364
0.050019
0.0686896
0.0878691
0.104809
0.116867
0.122341
0.120873
0.113175
0.100262
0.0827684
0.060819
0.0345023
0.00450551
-0.0276313
-0.0598885
-0.090531
-0.118713
-0.144484
-0.168208
-0.189838
-0.208536
-0.222842
-0.231215
-0.232619
-0.226883
-0.214746
-0.197637
-0.17733
-0.155601
-0.133976
-0.113599
-0.0952032
-0.0791592
-0.065554
-0.0542836
-0.0451327
-0.0378375
-0.0321287
-0.0277585
-0.0245149
-0.0222284
-0.0207728
-0.0200654
-0.0200653
-0.0207723
-0.0222275
-0.0245137
-0.0277569
-0.0321267
-0.0378352
-0.0451301
-0.0542808
-0.0655512
-0.0791566
-0.0952012
-0.113597
-0.133976
-0.155603
-0.177334
-0.197643
-0.214754
-0.226892
-0.232629
-0.231225
-0.22285
-0.208542
-0.189842
-0.168211
-0.144486
-0.118714
-0.0905315
-0.059888
-0.0276294
0.00450852
0.034506
0.0608228
0.082772
0.100266
0.113179
0.120878
0.122346
0.116872
0.104812
0.0878706
0.0686894
0.0500173
0.0339341
0.0214724
0.0126889
0.00700513
0.00359041
0.00163385
0.000463028
0.00092139
0.00317777
0.00671899
0.0125014
0.0214747
0.0343063
0.0509623
0.0703186
0.0900839
0.107269
0.119151
0.124278
0.122872
0.11628
0.105805
0.0917727
0.0735519
0.0504679
0.02286
-0.00757301
-0.038428
-0.067788
-0.0950732
-0.120917
-0.146178
-0.170853
-0.19367
-0.212546
-0.225478
-0.231307
-0.230013
-0.222557
-0.210466
-0.195389
-0.178774
-0.161726
-0.144991
-0.129027
-0.114095
-0.100341
-0.087846
-0.0766595
-0.0668075
-0.0582961
-0.0511127
-0.0452277
-0.0405997
-0.0371826
-0.0349328
-0.0338169
-0.0338168
-0.0349324
-0.0371819
-0.0405989
-0.0452267
-0.0511116
-0.058295
-0.0668064
-0.0766586
-0.0878452
-0.10034
-0.114095
-0.129027
-0.144992
-0.161727
-0.178776
-0.195392
-0.210472
-0.222564
-0.230021
-0.231316
-0.225487
-0.212553
-0.193676
-0.170856
-0.146179
-0.120918
-0.0950739
-0.0677883
-0.0384274
-0.00757087
0.0228636
0.0504721
0.0735559
0.0917759
0.105807
0.116283
0.122875
0.124282
0.119156
0.107273
0.0900856
0.0703184
0.0509607
0.034304
0.0214724
0.0124995
0.00671762
0.00317698
0.000921131
0.0017267
0.00581737
0.0118158
0.020908
0.0339364
0.0509623
0.070832
0.0910742
0.108436
0.120028
0.124539
0.122666
0.116304
0.106939
0.0944919
0.0775862
0.0550638
0.0275022
-0.0025012
-0.0315338
-0.0572032
-0.0792928
-0.0993963
-0.119326
-0.139539
-0.158729
-0.174703
-0.185677
-0.191084
-0.191572
-0.188484
-0.183231
-0.176873
-0.169985
-0.16276
-0.155191
-0.147243
-0.138956
-0.130475
-0.12202
-0.113844
-0.106186
-0.0992387
-0.0931325
-0.0879382
-0.0836762
-0.0803319
-0.0778721
-0.0762589
-0.075461
-0.0754609
-0.0762586
-0.0778716
-0.0803313
-0.0836754
-0.0879374
-0.0931317
-0.099238
-0.106186
-0.113844
-0.12202
-0.130476
-0.138957
-0.147244
-0.155192
-0.162761
-0.169986
-0.176874
-0.183234
-0.188487
-0.191577
-0.19109
-0.185683
-0.174708
-0.158733
-0.139541
-0.119327
-0.0993973
-0.0792944
-0.057205
-0.0315348
-0.00250031
0.0275053
0.0550681
0.0775905
0.0944952
0.106942
0.116307
0.12267
0.124543
0.120032
0.108439
0.091076
0.0708318
0.0509607
0.0339341
0.0209058
0.011814
0.00581625
0.00172632
0.00304326
0.0100108
0.0195027
0.0327316
0.050019
0.0703186
0.0910742
0.10879
0.120341
0.124426
0.12209
0.115682
0.106793
0.0948403
0.0776481
0.0536952
0.0241512
-0.00704318
-0.0351576
-0.0572683
-0.0736502
-0.0870011
-0.100083
-0.113611
-0.125999
-0.134906
-0.139058
-0.138964
-0.136355
-0.133159
-0.13073
-0.129596
-0.129629
-0.130391
-0.13144
-0.132489
-0.133432
-0.134287
-0.135125
-0.136005
-0.136948
-0.137935
-0.13892
-0.139847
-0.14067
-0.141357
-0.141895
-0.142284
-0.142534
-0.142655
-0.142655
-0.142534
-0.142284
-0.141895
-0.141357
-0.14067
-0.139847
-0.13892
-0.137935
-0.136948
-0.136004
-0.135124
-0.134286
-0.133431
-0.132488
-0.131439
-0.13039
-0.129627
-0.129595
-0.130728
-0.133158
-0.136356
-0.138967
-0.139062
-0.13491
-0.126003
-0.113613
-0.100084
-0.0870027
-0.0736531
-0.057272
-0.0351607
-0.007044
0.0241534
0.0536996
0.0776529
0.094844
0.106795
0.115684
0.122093
0.12443
0.120346
0.108793
0.091076
0.0703184
0.0500173
0.0327294
0.0195007
0.0100094
0.00304276
0.00503512
0.0161659
0.0301684
0.0479028
0.0686896
0.0900839
0.108436
0.120341
0.124359
0.121731
0.115208
0.106516
0.0946005
0.0764759
0.0502915
0.0179456
-0.0151391
-0.04295
-0.0622456
-0.0739924
-0.0819974
-0.0897316
-0.0977417
-0.103726
-0.105008
-0.100995
-0.0935898
-0.0857709
-0.0799681
-0.0773575
-0.0780097
-0.0814027
-0.0869161
-0.0940728
-0.102537
-0.112019
-0.122184
-0.132617
-0.142858
-0.152461
-0.161058
-0.168409
-0.174408
-0.179077
-0.182537
-0.184972
-0.18659
-0.187596
-0.188162
-0.188413
-0.188414
-0.188163
-0.187598
-0.186592
-0.184974
-0.18254
-0.17908
-0.174411
-0.168412
-0.161061
-0.152462
-0.142859
-0.132617
-0.122183
-0.112017
-0.102534
-0.0940696
-0.0869125
-0.0813987
-0.0780055
-0.0773533
-0.0799646
-0.085769
-0.0935903
-0.100998
-0.105013
-0.10373
-0.0977445
-0.0897333
-0.0819994
-0.073996
-0.0622507
-0.0429549
-0.0151415
0.0179469
0.0502959
0.0764812
0.0946046
0.106519
0.115209
0.121734
0.124362
0.120346
0.108439
0.0900856
0.0686894
0.0479013
0.0301664
0.0161644
0.00503453
0.00780518
0.0244548
0.0436739
0.065477
0.0878691
0.107269
0.120028
0.124426
0.121731
0.115045
0.106369
0.0943582
0.0752877
0.0469307
0.0118638
-0.0230675
-0.0507539
-0.0679025
-0.0762723
-0.0806026
-0.0847774
-0.0889347
-0.0899361
-0.08484
-0.0739965
-0.0609288
-0.0497221
-0.0427942
-0.0406185
-0.0426129
-0.0479619
-0.0560235
-0.066348
-0.078459
-0.0917032
-0.105265
-0.118275
-0.129961
-0.139777
-0.147449
-0.152967
-0.156529
-0.158462
-0.159157
-0.159002
-0.158349
-0.157494
-0.156664
-0.156024
-0.155678
-0.155679
-0.156024
-0.156665
-0.157495
-0.158351
-0.159004
-0.15916
-0.158466
-0.156533
-0.152971
-0.147453
-0.139781
-0.129964
-0.118277
-0.105266
-0.0917027
-0.0784572
-0.0663452
-0.0560198
-0.0479576
-0.0426079
-0.0406132
-0.042789
-0.049718
-0.0609272
-0.0739981
-0.0848442
-0.0899408
-0.0889381
-0.0847794
-0.0806047
-0.0762762
-0.0679084
-0.0507601
-0.0230712
0.0118644
0.046935
0.0752934
0.0943627
0.106372
0.115047
0.121734
0.12443
0.120032
0.107273
0.0878706
0.0654767
0.0436726
0.0244534
0.00780462
0.0113124
0.0345914
0.0590958
0.0835549
0.104809
0.119151
0.124539
0.12209
0.115208
0.106369
0.0942677
0.0745936
0.0446096
0.00732378
-0.0291796
-0.056851
-0.072478
-0.0785141
-0.0802689
-0.0818014
-0.0830165
-0.080319
-0.0707906
-0.0558694
-0.0406147
-0.0297202
-0.0247548
-0.0247699
-0.0283175
-0.0344232
-0.0424926
-0.0520226
-0.0623044
-0.072363
-0.081219
-0.0881398
-0.0927765
-0.0951951
-0.0957741
-0.0950485
-0.0935828
-0.0918562
-0.0902165
-0.0888696
-0.0878922
-0.0872733
-0.086941
-0.0868045
-0.0867718
-0.0867743
-0.0867742
-0.0867713
-0.0868036
-0.0869399
-0.087272
-0.0878909
-0.0888685
-0.0902156
-0.0918558
-0.0935831
-0.0950497
-0.0957762
-0.095198
-0.0927799
-0.0881432
-0.081222
-0.0723652
-0.0623053
-0.0520223
-0.0424912
-0.0344207
-0.0283142
-0.0247655
-0.0247495
-0.0297149
-0.0406111
-0.0558692
-0.0707938
-0.0803235
-0.0830201
-0.0818035
-0.0802711
-0.0785182
-0.0724843
-0.0568579
-0.0291842
0.00732376
0.0446139
0.0745995
0.0942723
0.106372
0.115209
0.122093
0.124543
0.119156
0.104812
0.0835565
0.0590957
0.0345908
0.011312
0.0152933
0.0456614
0.0746517
0.0995641
0.116867
0.124278
0.122666
0.115682
0.106516
0.0943582
0.0745936
0.0437899
0.00493996
-0.0329245
-0.0608496
-0.0756282
-0.0801695
-0.0799268
-0.0789969
-0.0776118
-0.072476
-0.0608736
-0.0449284
-0.0306546
-0.0226995
-0.0211066
-0.0231323
-0.0266869
-0.0311965
-0.0364012
-0.0417295
-0.0463651
-0.049401
-0.0502986
-0.0491683
-0.0466195
-0.0435361
-0.0408195
-0.0391421
-0.03887
-0.0400703
-0.0425508
-0.0459862
-0.0499718
-0.0541148
-0.0580632
-0.0615306
-0.0643027
-0.0662273
-0.0672122
-0.0672121
-0.0662269
-0.0643019
-0.0615294
-0.0580617
-0.0541127
-0.0499692
-0.0459831
-0.0425473
-0.0400666
-0.0388663
-0.0391389
-0.0408171
-0.0435348
-0.0466197
-0.0491697
-0.0503009
-0.0494037
-0.0463675
-0.0417311
-0.0364019
-0.0311964
-0.0266861
-0.0231303
-0.021103
-0.0226944
-0.03065
-0.0449267
-0.0608755
-0.0724795
-0.0776148
-0.0789989
-0.079929
-0.0801737
-0.0756347
-0.0608569
-0.0329296
0.00493962
0.0437941
0.0745995
0.0943627
0.106519
0.115684
0.12267
0.124282
0.116872
0.0995675
0.0746535
0.045662
0.0152933
0.0192293
0.0561119
0.0879245
0.110871
0.122341
0.122872
0.116304
0.106793
0.0946005
0.0752877
0.0446096
0.00493996
-0.034177
-0.0628035
-0.0774465
-0.0812148
-0.0793876
-0.0760095
-0.0722999
-0.0661365
-0.0548678
-0.0401882
-0.0281321
-0.0230319
-0.0235187
-0.0254095
-0.0266375
-0.0278188
-0.0293527
-0.0303911
-0.0300555
-0.0279465
-0.0243076
-0.0201991
-0.0169081
-0.0154217
-0.0162862
-0.0195062
-0.0246433
-0.0310812
-0.0381296
-0.0451856
-0.0518095
-0.0576892
-0.0626901
-0.0667479
-0.0698948
-0.0721748
-0.0736544
-0.0743798
-0.0743799
-0.0736548
-0.0721754
-0.0698956
-0.0667487
-0.0626909
-0.0576897
-0.0518096
-0.0451852
-0.0381284
-0.0310791
-0.0246403
-0.0195025
-0.0162821
-0.0154178
-0.016905
-0.0201972
-0.0243072
-0.0279475
-0.0300571
-0.0303927
-0.0293539
-0.0278196
-0.0266381
-0.0254097
-0.0235173
-0.0230282
-0.0281278
-0.040186
-0.0548686
-0.0661387
-0.0723018
-0.076011
-0.07939
-0.0812191
-0.0774531
-0.062811
-0.0341823
0.00493962
0.0446139
0.0752934
0.0946046
0.106795
0.116307
0.122875
0.122346
0.110876
0.0879283
0.056114
0.0192299
0.0223976
0.0639746
0.0963694
0.11548
0.120873
0.11628
0.106939
0.0948403
0.0764759
0.0469307
0.00732378
-0.0329245
-0.0628035
-0.0780407
-0.0817167
-0.078865
-0.0733436
-0.0677023
-0.0617352
-0.0526039
-0.0400739
-0.02926
-0.0247674
-0.0249639
-0.02505
-0.0234119
-0.022094
-0.0220925
-0.0216932
-0.0196341
-0.0163936
-0.0129761
-0.0107609
-0.0109205
-0.0136043
-0.0183039
-0.0241876
-0.0302617
-0.0357607
-0.0402514
-0.0435052
-0.0456184
-0.0467491
-0.047153
-0.0470846
-0.0467394
-0.0463079
-0.0458873
-0.0455756
-0.0454057
-0.0454057
-0.0455758
-0.0458877
-0.0463085
-0.0467403
-0.0470857
-0.0471546
-0.046751
-0.0456204
-0.0435073
-0.0402534
-0.0357622
-0.0302624
-0.0241873
-0.0183023
-0.0136017
-0.0109175
-0.010758
-0.0129742
-0.0163929
-0.0196345
-0.021694
-0.0220929
-0.0220939
-0.0234122
-0.0250508
-0.0249637
-0.0247651
-0.0292569
-0.0400725
-0.0526046
-0.0617363
-0.0677029
-0.0733447
-0.0788674
-0.0817211
-0.0780473
-0.062811
-0.0329296
0.00732376
0.046935
0.0764812
0.094844
0.106942
0.116283
0.120878
0.115486
0.0963748
0.0639784
0.022399
0.0240147
0.0672975
0.0979356
0.112482
0.113175
0.105805
0.0944919
0.0776481
0.0502915
0.0118638
-0.0291796
-0.0608496
-0.0774465
-0.0817167
-0.0786481
-0.0717537
-0.0646046
-0.0593035
-0.0529781
-0.0422898
-0.0306474
-0.0241992
-0.0228637
-0.0217765
-0.019217
-0.0178553
-0.0188851
-0.0193649
-0.0172589
-0.0143712
-0.0126242
-0.0127337
-0.0151174
-0.0189399
-0.0227927
-0.0257923
-0.0273664
-0.0273493
-0.0261194
-0.0240705
-0.0216397
-0.0192777
-0.0171282
-0.0154235
-0.0141048
-0.0131991
-0.0125971
-0.0122388
-0.0120437
-0.01196
-0.0119599
-0.0120434
-0.0122383
-0.0125965
-0.0131984
-0.014104
-0.0154228
-0.0171277
-0.0192776
-0.02164
-0.0240715
-0.026121
-0.0273514
-0.0273686
-0.0257943
-0.022794
-0.0189401
-0.0151164
-0.0127319
-0.0126224
-0.01437
-0.0172589
-0.0193657
-0.0188852
-0.0178542
-0.0192163
-0.0217766
-0.0228631
-0.0241971
-0.0306455
-0.04229
-0.0529793
-0.0593038
-0.0646043
-0.0717544
-0.0786505
-0.0817211
-0.0774531
-0.0608569
-0.0291842
0.0118644
0.0502959
0.0776529
0.0944952
0.105807
0.113179
0.112488
0.0979421
0.0673025
0.0240166
0.0234356
0.0646458
0.0915492
0.102033
0.100262
0.0917727
0.0775862
0.0536952
0.0179456
-0.0230675
-0.056851
-0.0756282
-0.0812148
-0.078865
-0.0717537
-0.0635178
-0.05834
-0.0542383
-0.0447285
-0.0307332
-0.0209358
-0.0186071
-0.018702
-0.0177997
-0.0178372
-0.0200609
-0.0210737
-0.0181739
-0.0146324
-0.0138482
-0.0149616
-0.0170325
-0.0191838
-0.0198048
-0.0187316
-0.0165177
-0.0135872
-0.0106715
-0.00837278
-0.00671807
-0.00595001
-0.0058484
-0.00624805
-0.00704331
-0.0079189
-0.00889705
-0.00971473
-0.0104321
-0.0108992
-0.0111559
-0.0111558
-0.010899
-0.0104318
-0.00971429
-0.00889644
-0.00791809
-0.00704229
-0.0062468
-0.005847
-0.00594853
-0.00671664
-0.00837165
-0.0106708
-0.0135873
-0.0165185
-0.0187331
-0.0198066
-0.0191853
-0.0170331
-0.0149611
-0.0138469
-0.0146312
-0.0181743
-0.0210752
-0.0200616
-0.0178365
-0.0177988
-0.0187012
-0.018605
-0.0209327
-0.030732
-0.0447303
-0.0542404
-0.0583399
-0.0635171
-0.0717544
-0.0788674
-0.0812191
-0.0756347
-0.0568579
-0.0230712
0.0179469
0.0536996
0.0775905
0.0917759
0.100266
0.102038
0.0915557
0.0646513
0.0234378
0.0203386
0.0554841
0.0772719
0.084961
0.0827684
0.0735519
0.0550638
0.0241512
-0.0151391
-0.0507539
-0.072478
-0.0801695
-0.0793876
-0.0733436
-0.0646046
-0.05834
-0.0548562
-0.0461619
-0.0299323
-0.0168399
-0.0146834
-0.0180505
-0.019975
-0.0206911
-0.0220241
-0.0218767
-0.0176456
-0.0130148
-0.0130332
-0.0151495
-0.016011
-0.0161097
-0.014683
-0.0118763
-0.00935278
-0.00747694
-0.0063762
-0.00641458
-0.0071362
-0.00820912
-0.00969675
-0.0109542
-0.0123114
-0.0133557
-0.0142816
-0.0150059
-0.0155341
-0.0159473
-0.01618
-0.0163132
-0.0163132
-0.0161801
-0.0159474
-0.0155342
-0.0150061
-0.0142818
-0.0133558
-0.0123113
-0.0109539
-0.00969629
-0.00820831
-0.00713512
-0.00641324
-0.00637473
-0.00747571
-0.00935199
-0.0118762
-0.0146839
-0.0161109
-0.0160121
-0.0151499
-0.013032
-0.0130131
-0.0176457
-0.0218785
-0.0220255
-0.0206916
-0.0199752
-0.0180496
-0.0146798
-0.0168352
-0.0299311
-0.0461646
-0.0548586
-0.0583399
-0.0646043
-0.0733447
-0.07939
-0.0801737
-0.0724843
-0.0507601
-0.0151415
0.0241534
0.0550681
0.0735559
0.082772
0.0849656
0.0772777
0.0554893
0.0203408
0.0148237
0.0403011
0.0561358
0.0623112
0.060819
0.0504679
0.0275022
-0.00704318
-0.04295
-0.0679025
-0.0785141
-0.0799268
-0.0760095
-0.0677023
-0.0593035
-0.0542383
-0.0461619
-0.029463
-0.0141345
-0.0123956
-0.0194111
-0.0237151
-0.0234618
-0.0219771
-0.0198204
-0.0154926
-0.0110863
-0.0119615
-0.0154677
-0.0151312
-0.0131618
-0.0115266
-0.00909343
-0.00784053
-0.00807637
-0.00868975
-0.00984333
-0.0113706
-0.0124121
-0.0135639
-0.0144082
-0.0149001
-0.0155263
-0.0156194
-0.0159931
-0.0159448
-0.0161103
-0.0160491
-0.0160983
-0.0160737
-0.0160738
-0.0160984
-0.0160494
-0.0161106
-0.0159452
-0.0159936
-0.0156199
-0.0155269
-0.0149006
-0.0144088
-0.0135643
-0.0124124
-0.0113707
-0.00984291
-0.00868897
-0.00807534
-0.0078392
-0.00909249
-0.0115264
-0.0131621
-0.0151324
-0.0154688
-0.0119604
-0.0110842
-0.015492
-0.0198214
-0.0219785
-0.0234635
-0.0237169
-0.0194109
-0.0123909
-0.0141287
-0.0294618
-0.0461646
-0.0542404
-0.0593038
-0.0677029
-0.076011
-0.079929
-0.0785182
-0.0679084
-0.0429549
-0.00704401
0.0275053
0.0504721
0.0608227
0.0623149
0.0561401
0.0403052
0.0148254
0.00739285
0.0204662
0.0298188
0.035149
0.0345023
0.02286
-0.0025012
-0.0351576
-0.0622456
-0.0762723
-0.0802689
-0.0789969
-0.0722999
-0.0617352
-0.0529781
-0.0447285
-0.0299323
-0.0141345
-0.0117098
-0.0208558
-0.0266882
-0.0247075
-0.0202072
-0.0164236
-0.0135091
-0.0110433
-0.0119149
-0.01581
-0.0149044
-0.0108525
-0.010158
-0.00969929
-0.00940488
-0.0110825
-0.0123537
-0.0131598
-0.0142414
-0.0146915
-0.0145623
-0.0147708
-0.0139319
-0.0135395
-0.0126091
-0.011703
-0.0109355
-0.00993514
-0.00939839
-0.00867361
-0.00839653
-0.00813768
-0.00813767
-0.00839654
-0.0086736
-0.00939844
-0.00993521
-0.0109357
-0.0117032
-0.0126096
-0.0135401
-0.0139325
-0.0147717
-0.0145631
-0.0146924
-0.0142423
-0.0131603
-0.0123541
-0.0110823
-0.009404
-0.00969856
-0.0101572
-0.0108518
-0.0149056
-0.0158114
-0.011914
-0.0110415
-0.0135079
-0.0164232
-0.0202079
-0.0247099
-0.0266915
-0.0208562
-0.0117049
-0.0141287
-0.0299311
-0.0447303
-0.0529793
-0.0617363
-0.0723018
-0.0789989
-0.0802711
-0.0762762
-0.0622508
-0.0351607
-0.00250032
0.0228636
0.034506
0.0351519
0.0298214
0.0204684
0.00739383
-0.00116232
-0.00207235
0.000361246
0.00468538
0.00450551
-0.00757301
-0.0315338
-0.0572683
-0.0739924
-0.0806026
-0.0818014
-0.0776118
-0.0661365
-0.0526039
-0.0422898
-0.0307332
-0.0168399
-0.0123956
-0.0208558
-0.0277561
-0.0248956
-0.0184296
-0.0136883
-0.0121765
-0.0124691
-0.0128173
-0.0151782
-0.0150917
-0.0103204
-0.0101934
-0.0125515
-0.0119927
-0.0130957
-0.0140638
-0.0132383
-0.0126844
-0.0119183
-0.00989972
-0.00842791
-0.00664663
-0.00441701
-0.0034424
-0.00144083
-0.00103776
0.000128818
0.000249813
0.00068337
0.00069401
0.000775725
0.000768781
0.000768898
0.000775929
0.000694439
0.000683891
0.0002505
0.000129608
-0.00103697
-0.00143993
-0.00344175
-0.00441635
-0.00664635
-0.00842791
-0.00989989
-0.011919
-0.0126851
-0.013239
-0.0140649
-0.0130962
-0.0119928
-0.0125518
-0.0101923
-0.0103193
-0.0150929
-0.0151794
-0.0128171
-0.0124682
-0.0121749
-0.0136867
-0.0184295
-0.0248981
-0.0277599
-0.0208562
-0.0123909
-0.0168352
-0.030732
-0.04229
-0.0526046
-0.0661387
-0.0776148
-0.0818035
-0.0806047
-0.073996
-0.057272
-0.0315348
-0.00757089
0.0045085
0.00468725
0.000361856
-0.00207222
-0.00116225
-0.00991035
-0.0251043
-0.0299888
-0.0274888
-0.0276313
-0.038428
-0.0572032
-0.0736502
-0.0819974
-0.0847774
-0.0830165
-0.072476
-0.0548678
-0.0400739
-0.0306474
-0.0209358
-0.0146834
-0.0194111
-0.0266882
-0.0248956
-0.0177503
-0.0123526
-0.0111482
-0.0138519
-0.0149303
-0.0144942
-0.015195
-0.0119648
-0.0103019
-0.0138446
-0.012623
-0.0107691
-0.0113992
-0.00928018
-0.00730839
-0.00626415
-0.00453001
-0.00303176
-0.00345557
-0.00281456
-0.00428269
-0.00550405
-0.00685594
-0.00918498
-0.0101143
-0.0123483
-0.0129113
-0.0143656
-0.0146334
-0.0151223
-0.0151223
-0.0146335
-0.0143658
-0.0129115
-0.0123485
-0.0101143
-0.00918493
-0.0068555
-0.00550343
-0.00428183
-0.0028133
-0.00345452
-0.00303044
-0.00452904
-0.00626367
-0.00730787
-0.00928032
-0.0113998
-0.010769
-0.0126237
-0.0138456
-0.0103009
-0.0119643
-0.015196
-0.014495
-0.0149311
-0.0138517
-0.0111461
-0.0123504
-0.01775
-0.0248981
-0.0266915
-0.0194109
-0.0146798
-0.0209327
-0.0306455
-0.0400725
-0.0548686
-0.0724795
-0.0830201
-0.0847794
-0.0819994
-0.0736531
-0.057205
-0.0384274
-0.0276295
-0.0274882
-0.0299901
-0.0251063
-0.00991123
-0.0179134
-0.046408
-0.058869
-0.0593674
-0.0598885
-0.067788
-0.0792928
-0.0870011
-0.0897316
-0.0889347
-0.080319
-0.0608736
-0.0401882
-0.02926
-0.0241992
-0.0186071
-0.0180505
-0.0237151
-0.0247075
-0.0184296
-0.0123526
-0.0106877
-0.0145149
-0.0177826
-0.0149531
-0.0134914
-0.0128564
-0.00934988
-0.0109516
-0.0112892
-0.00738915
-0.00842433
-0.00809061
-0.00626309
-0.00705108
-0.00795522
-0.00864182
-0.0111612
-0.0135437
-0.0146194
-0.0176469
-0.017139
-0.0188235
-0.0178234
-0.0177922
-0.0169637
-0.0161026
-0.015611
-0.0149108
-0.014751
-0.0147511
-0.0149109
-0.0156114
-0.0161031
-0.0169645
-0.0177931
-0.0178245
-0.0188248
-0.0171401
-0.0176483
-0.0146202
-0.0135444
-0.0111614
-0.00864126
-0.00795474
-0.0070503
-0.00626201
-0.00809045
-0.00842405
-0.0073883
-0.0112898
-0.0109518
-0.00934882
-0.0128564
-0.0134915
-0.014954
-0.0177847
-0.014515
-0.0106855
-0.0123504
-0.0184295
-0.0247099
-0.0237169
-0.0180496
-0.018605
-0.0241971
-0.0292569
-0.040186
-0.0608755
-0.0803235
-0.0889381
-0.0897333
-0.0870027
-0.0792944
-0.0677883
-0.059888
-0.0593682
-0.0588722
-0.0464118
-0.0179151
-0.0243277
-0.0639488
-0.0839787
-0.0888518
-0.090531
-0.0950732
-0.0993963
-0.100083
-0.0977417
-0.0899361
-0.0707906
-0.0449284
-0.0281321
-0.0247674
-0.0228637
-0.018702
-0.019975
-0.0234618
-0.0202072
-0.0136883
-0.0111482
-0.0145149
-0.0192019
-0.0158918
-0.00992162
-0.0105879
-0.00942314
-0.00820562
-0.0112714
-0.00938246
-0.00930347
-0.0116251
-0.0099762
-0.0110214
-0.0127363
-0.0131671
-0.0131788
-0.0137637
-0.011038
-0.00952102
-0.00697292
-0.00320738
-0.00219044
0.00186669
0.00184044
0.00471704
0.00440067
0.00587549
0.0056593
0.00608374
0.00608377
0.00565968
0.00587597
0.00440135
0.00471788
0.00184116
0.00186762
-0.00219003
-0.00320695
-0.00697308
-0.00952166
-0.0110387
-0.0137652
-0.0131799
-0.013168
-0.0127371
-0.0110214
-0.00997594
-0.0116256
-0.00930308
-0.00938222
-0.011272
-0.00820494
-0.00942247
-0.010587
-0.00992025
-0.0158931
-0.0192046
-0.014515
-0.0111461
-0.0136867
-0.0202079
-0.0234635
-0.0199752
-0.0187012
-0.0228631
-0.0247651
-0.0281278
-0.0449267
-0.0707938
-0.0899408
-0.0977445
-0.100084
-0.0993973
-0.0950739
-0.0905315
-0.0888539
-0.0839833
-0.063954
-0.02433
-0.0284874
-0.0760921
-0.103415
-0.1143
-0.118713
-0.120917
-0.119326
-0.113611
-0.103726
-0.08484
-0.0558694
-0.0306546
-0.0230319
-0.0249639
-0.0217765
-0.0177997
-0.0206911
-0.0219771
-0.0164236
-0.0121765
-0.0138519
-0.0177826
-0.0158918
-0.00792997
-0.00745035
-0.0120298
-0.0108106
-0.0121586
-0.0135014
-0.0104881
-0.0113187
-0.0102873
-0.00903449
-0.00981571
-0.00837277
-0.00620044
-0.00424068
-0.00255887
0.000334893
-0.000992569
0.000619239
-0.00198961
-0.00299177
-0.004936
-0.00759896
-0.00848459
-0.0111411
-0.0113905
-0.0129325
-0.0129659
-0.0129659
-0.0129327
-0.0113904
-0.0111413
-0.00848439
-0.00759881
-0.00493542
-0.00299094
-0.00198861
0.000620819
-0.000991363
0.000336476
-0.00255789
-0.00424024
-0.00620023
-0.00837322
-0.00981636
-0.00903448
-0.0102875
-0.011319
-0.010488
-0.0135023
-0.0121592
-0.010811
-0.0120302
-0.00744829
-0.00792783
-0.0158931
-0.0177847
-0.0138517
-0.0121749
-0.0164232
-0.0219785
-0.0206916
-0.0177988
-0.0217766
-0.0249637
-0.0230282
-0.03065
-0.0558692
-0.0848442
-0.10373
-0.113613
-0.119327
-0.120918
-0.118714
-0.114303
-0.103421
-0.076098
-0.02849
-0.0299945
-0.0818658
-0.116094
-0.134973
-0.144484
-0.146178
-0.139539
-0.125999
-0.105008
-0.0739965
-0.0406147
-0.0226995
-0.0235187
-0.02505
-0.019217
-0.0178372
-0.0220241
-0.0198204
-0.0135091
-0.0124691
-0.0149303
-0.0149531
-0.00992162
-0.00745035
-0.0138517
-0.0156878
-0.0111716
-0.0113428
-0.00916183
-0.00650901
-0.00776449
-0.00708689
-0.00724657
-0.00655436
-0.00579843
-0.00554123
-0.00727391
-0.00870515
-0.0111154
-0.0145292
-0.0147925
-0.01844
-0.0167477
-0.0188812
-0.0167949
-0.0172362
-0.015734
-0.0153797
-0.0146635
-0.0144283
-0.0144282
-0.0146638
-0.01538
-0.0157347
-0.017237
-0.0167959
-0.0188825
-0.0167488
-0.0184415
-0.0147934
-0.01453
-0.0111157
-0.00870477
-0.00727336
-0.00554027
-0.00579764
-0.00655402
-0.00724651
-0.0070868
-0.00776424
-0.00650813
-0.0091615
-0.0113429
-0.0111719
-0.0156899
-0.0138527
-0.00744829
-0.00992025
-0.014954
-0.0149311
-0.0124682
-0.0135079
-0.0198214
-0.0220255
-0.0178365
-0.0192163
-0.0250508
-0.0235173
-0.0226944
-0.0406111
-0.0739981
-0.105013
-0.126003
-0.139541
-0.146179
-0.144486
-0.134976
-0.116099
-0.0818715
-0.0299971
-0.0288124
-0.0812155
-0.122047
-0.151082
-0.168208
-0.170853
-0.158729
-0.134906
-0.100995
-0.0609288
-0.0297202
-0.0211066
-0.0254095
-0.0234119
-0.0178553
-0.0200609
-0.0218767
-0.0154926
-0.0110433
-0.0128173
-0.0144942
-0.0134914
-0.0105879
-0.0120298
-0.0156878
-0.0100203
-0.00528571
-0.00812584
-0.00743077
-0.0083242
-0.0108449
-0.00976292
-0.00919213
-0.00963196
-0.010611
-0.0110736
-0.0127586
-0.0112025
-0.0109284
-0.00820287
-0.00545003
-0.00360595
0.000260088
0.000557327
0.0039421
0.00333541
0.00549494
0.00481481
0.00578207
0.00550943
0.00550956
0.00578234
0.00481528
0.00549558
0.00333606
0.00394294
0.000557909
0.000260713
-0.00360579
-0.00545017
-0.00820339
-0.0109294
-0.0112035
-0.0127598
-0.0110742
-0.0106113
-0.0096319
-0.00919183
-0.00976318
-0.0108456
-0.0083241
-0.00743048
-0.00812516
-0.00528369
-0.0100203
-0.0156899
-0.0120302
-0.010587
-0.0134915
-0.014495
-0.0128171
-0.0110415
-0.015492
-0.0218785
-0.0200616
-0.0178542
-0.0234122
-0.0254097
-0.021103
-0.0297149
-0.0609272
-0.100998
-0.13491
-0.158733
-0.170856
-0.168211
-0.151085
-0.122051
-0.08122
-0.0288145
-0.0253265
-0.0751275
-0.122425
-0.163421
-0.189838
-0.19367
-0.174703
-0.139058
-0.0935898
-0.0497221
-0.0247548
-0.0231323
-0.0266375
-0.022094
-0.0188851
-0.0210737
-0.0176456
-0.0110863
-0.0119149
-0.0151782
-0.015195
-0.0128564
-0.00942314
-0.0108106
-0.0111716
-0.00528571
-0.00819305
-0.0137293
-0.0107738
-0.010876
-0.0102409
-0.00721848
-0.00794399
-0.00856931
-0.00706061
-0.00586265
-0.00477251
-0.00154473
-0.00220978
-0.000532313
-0.00219076
-0.00325358
-0.00479137
-0.00743245
-0.00833033
-0.0110227
-0.0113601
-0.0131863
-0.0132539
-0.0138828
-0.0138828
-0.013254
-0.0131865
-0.0113602
-0.0110229
-0.00833018
-0.00743223
-0.00479078
-0.00325279
-0.00218975
-0.000531062
-0.00220884
-0.00154371
-0.00477227
-0.00586269
-0.00706081
-0.00856992
-0.00794389
-0.00721794
-0.0102413
-0.0108763
-0.0107745
-0.0137311
-0.00819229
-0.00528369
-0.0111719
-0.010811
-0.00942247
-0.0128564
-0.015196
-0.0151794
-0.011914
-0.0110842
-0.0176457
-0.0210752
-0.0188852
-0.0220939
-0.0266381
-0.0231303
-0.0247495
-0.049718
-0.0935903
-0.139062
-0.174708
-0.193676
-0.189842
-0.163424
-0.122427
-0.07513
-0.0253276
-0.0203244
-0.0655112
-0.119159
-0.172814
-0.208536
-0.212546
-0.185677
-0.138964
-0.0857709
-0.0427942
-0.0247699
-0.0266869
-0.0278188
-0.0220925
-0.0193649
-0.0181739
-0.0130148
-0.0119615
-0.01581
-0.0150917
-0.0119648
-0.00934988
-0.00820562
-0.0121586
-0.0113428
-0.00812584
-0.0137293
-0.0117649
-0.00495008
-0.00707623
-0.00647022
-0.00624954
-0.00814596
-0.00688619
-0.00568259
-0.00683282
-0.00740081
-0.00820845
-0.0119012
-0.0111737
-0.0144435
-0.0132515
-0.0139644
-0.0131469
-0.0118983
-0.0115392
-0.00981675
-0.00971377
-0.00861186
-0.00859655
-0.00859663
-0.00861193
-0.00971405