/*--------------------------------*- C++ -*----------------------------------*\
  =========                 |
  \\      /  F ield         | OpenFOAM: The Open Source CFD Toolbox
   \\    /   O peration     | Website:  https://openfoam.org
    \\  /    A nd           | Version:  10
     \\/     M anipulation  |
\*---------------------------------------------------------------------------*/
FoamFile
{
    format      ascii;
    class       volScalarField;
    location    "77";
    object      h_0;
}
// * * * * * * * * * * * * * * * * * * * * * * * * * * * * * * * * * * * * * //

dimensions      [0 1 0 0 0 0 0];

internalField   nonuniform List<scalar> 
10000
(
-0.000830687
-0.00235092
-0.00351004
-0.00423404
-0.00460642
-0.00486112
-0.00527106
-0.00594716
-0.00674365
-0.00735358
-0.0075453
-0.0073852
-0.00726445
-0.00764273
-0.00872173
-0.0102931
-0.0118611
-0.0129661
-0.0134282
-0.0133188
-0.0127907
-0.0119072
-0.010604
-0.00889891
-0.00709205
-0.00563792
-0.00487264
-0.00491484
-0.00567166
-0.00688173
-0.00820356
-0.0093406
-0.0100984
-0.0103164
-0.00983772
-0.00859653
-0.00661537
-0.00394375
-0.00072356
0.00276625
0.00622843
0.00947918
0.0124186
0.0149381
0.0170033
0.0187544
0.0203296
0.0216574
0.0225535
0.0229624
0.0229624
0.0225535
0.0216574
0.0203296
0.0187543
0.017003
0.0149377
0.012418
0.00947871
0.00622817
0.00276621
-0.000723431
-0.00394351
-0.00661504
-0.00859608
-0.00983715
-0.0103158
-0.0100978
-0.00934018
-0.00820329
-0.00688156
-0.00567156
-0.00491482
-0.00487272
-0.00563811
-0.00709227
-0.00889911
-0.0106041
-0.0119074
-0.0127909
-0.013319
-0.0134284
-0.0129662
-0.0118612
-0.0102932
-0.00872183
-0.00764283
-0.00726455
-0.00738529
-0.0075454
-0.00735366
-0.00674369
-0.00594716
-0.00527107
-0.00486117
-0.00460651
-0.00423414
-0.00351012
-0.00235097
-0.000830704
-0.00235092
-0.00663844
-0.00986232
-0.0118012
-0.0127084
-0.013289
-0.0143555
-0.0162341
-0.018496
-0.0202401
-0.0207769
-0.0202846
-0.0199096
-0.0210237
-0.0242387
-0.0289278
-0.0335923
-0.0368491
-0.038171
-0.0377928
-0.0361803
-0.033515
-0.0295941
-0.0244679
-0.0190305
-0.0146342
-0.0122691
-0.0122653
-0.0143306
-0.0177073
-0.0214389
-0.0247055
-0.02695
-0.0276693
-0.0263636
-0.0228319
-0.0171686
-0.00954957
-0.000387627
0.00953653
0.019391
0.0286502
0.0370085
0.0441334
0.0499261
0.054814
0.0592161
0.0629307
0.0654256
0.0665523
0.0665523
0.0654256
0.0629308
0.0592161
0.0548138
0.0499255
0.0441322
0.0370071
0.0286489
0.0193903
0.00953643
-0.000387249
-0.00954889
-0.0171677
-0.0228306
-0.026362
-0.0276676
-0.0269484
-0.0247044
-0.0214381
-0.0177069
-0.0143304
-0.0122653
-0.0122693
-0.0146347
-0.0190311
-0.0244684
-0.0295944
-0.0335152
-0.0361805
-0.037793
-0.0381713
-0.0368493
-0.0335925
-0.0289279
-0.0242389
-0.0210239
-0.0199098
-0.0202848
-0.0207771
-0.0202403
-0.0184961
-0.0162341
-0.0143556
-0.0132892
-0.0127087
-0.0118015
-0.00986256
-0.00663859
-0.00235097
-0.00351004
-0.00986232
-0.0144943
-0.0170446
-0.017946
-0.0183751
-0.0196631
-0.0223371
-0.0257108
-0.02834
-0.0290952
-0.0282233
-0.0275568
-0.0293464
-0.0346179
-0.0423286
-0.0499703
-0.0552385
-0.0572836
-0.0565382
-0.0537952
-0.0493408
-0.0428254
-0.0343269
-0.025303
-0.0179463
-0.0138356
-0.0134485
-0.0162776
-0.0211553
-0.0266878
-0.031704
-0.0353451
-0.0367208
-0.0349302
-0.0296378
-0.0210732
-0.00959867
0.00414052
0.0190078
0.0337923
0.0476984
0.0602074
0.0707506
0.0791774
0.0862097
0.0925549
0.0979171
0.101478
0.103047
0.103047
0.101478
0.0979174
0.0925552
0.0862096
0.0791767
0.0707491
0.0602055
0.0476968
0.0337913
0.0190077
0.00414108
-0.00959761
-0.0210717
-0.029636
-0.0349281
-0.0367186
-0.035343
-0.0317025
-0.0266869
-0.0211548
-0.0162775
-0.0134486
-0.013836
-0.0179468
-0.0253035
-0.0343273
-0.0428255
-0.0493406
-0.053795
-0.0565381
-0.0572836
-0.0552385
-0.0499702
-0.0423285
-0.0346178
-0.0293464
-0.027557
-0.0282236
-0.0290955
-0.0283402
-0.025711
-0.0223372
-0.0196632
-0.0183754
-0.0179465
-0.017045
-0.0144946
-0.00986256
-0.00351012
-0.00423404
-0.0118012
-0.0170446
-0.0194805
-0.0197279
-0.0194169
-0.0203642
-0.0232924
-0.0272965
-0.0304481
-0.0312095
-0.0298671
-0.0288585
-0.0312383
-0.0384186
-0.0489576
-0.0593787
-0.0664935
-0.0691481
-0.0679865
-0.0641328
-0.0579776
-0.0490432
-0.0374362
-0.0251018
-0.0149399
-0.00899395
-0.00781178
-0.0106898
-0.0161952
-0.0227257
-0.0289571
-0.0338044
-0.0359698
-0.0341267
-0.0278184
-0.0174611
-0.00364691
0.0128029
0.0305689
0.0482522
0.0648936
0.0797814
0.0921206
0.101722
0.10958
0.116674
0.122661
0.12654
0.128163
0.128163
0.12654
0.122662
0.116674
0.10958
0.101721
0.0921194
0.0797797
0.0648919
0.0482511
0.0305687
0.0128035
-0.0036456
-0.0174593
-0.0278163
-0.0341245
-0.0359675
-0.0338023
-0.0289556
-0.0227249
-0.016195
-0.01069
-0.00781211
-0.00899434
-0.0149402
-0.025102
-0.0374361
-0.0490428
-0.0579768
-0.0641319
-0.0679857
-0.0691474
-0.0664929
-0.0593781
-0.048957
-0.0384181
-0.031238
-0.0288584
-0.0298673
-0.0312098
-0.0304482
-0.0272965
-0.0232925
-0.0203644
-0.0194173
-0.0197284
-0.0194811
-0.017045
-0.0118015
-0.00423414
-0.00460642
-0.0127084
-0.017946
-0.0197279
-0.0188453
-0.0173385
-0.0174738
-0.0201812
-0.0243786
-0.0276991
-0.028233
-0.0263063
-0.0248881
-0.0277263
-0.0365551
-0.0495677
-0.062424
-0.0711374
-0.074269
-0.0726648
-0.0677778
-0.0601225
-0.0491359
-0.0349491
-0.0198664
-0.00729127
0.000429968
0.00274535
0.000498254
-0.0047787
-0.0114845
-0.0183115
-0.0240413
-0.0270249
-0.0255621
-0.0190884
-0.00818603
0.00634377
0.0235632
0.0421023
0.0605352
0.0778633
0.0932568
0.105747
0.115112
0.122541
0.129216
0.134792
0.138217
0.139492
0.139493
0.138217
0.134793
0.129217
0.122542
0.115111
0.105747
0.0932554
0.0778619
0.0605342
0.042102
0.0235638
0.00634521
-0.00818402
-0.0190861
-0.02556
-0.027023
-0.0240397
-0.0183103
-0.011484
-0.00477883
0.0004977
0.00274466
0.000429412
-0.00729151
-0.0198662
-0.0349485
-0.0491349
-0.0601211
-0.0677763
-0.0726633
-0.0742676
-0.0711362
-0.0624229
-0.0495667
-0.0365542
-0.0277257
-0.0248878
-0.0263063
-0.028233
-0.0276991
-0.0243785
-0.0201812
-0.0174739
-0.0173389
-0.0188458
-0.0197284
-0.0179465
-0.0127087
-0.00460651
-0.00486112
-0.013289
-0.0183751
-0.0194169
-0.0173385
-0.014528
-0.0136578
-0.0158771
-0.0199683
-0.0231726
-0.0232548
-0.0205937
-0.0186143
-0.021629
-0.0316214
-0.04648
-0.0611575
-0.0709957
-0.0742953
-0.0720842
-0.0661492
-0.057177
-0.0445837
-0.0284996
-0.0114033
0.00304438
0.0123501
0.0159841
0.0148501
0.0104461
0.00423685
-0.00259927
-0.00882423
-0.0125848
-0.0119358
-0.00620202
0.00398217
0.0177061
0.0339713
0.0514226
0.0687097
0.0849176
0.09922
0.110569
0.118695
0.124847
0.130276
0.134667
0.137051
0.137679
0.137679
0.137052
0.134668
0.130277
0.124847
0.118696
0.110568
0.0992192
0.0849167
0.0687089
0.0514223
0.0339719
0.0177076
0.00398435
-0.0061997
-0.0119338
-0.0125832
-0.00882309
-0.00259866
0.00423685
0.0104454
0.014849
0.015983
0.0123492
0.00304398
-0.0114031
-0.0284989
-0.0445826
-0.0571755
-0.0661475
-0.0720825
-0.0742936
-0.0709942
-0.0611562
-0.0464788
-0.0316204
-0.0216282
-0.0186138
-0.0205935
-0.0232546
-0.0231724
-0.019968
-0.0158769
-0.0136578
-0.0145282
-0.0173389
-0.0194173
-0.0183754
-0.0132892
-0.00486117
-0.00527106
-0.0143555
-0.0196631
-0.0203642
-0.0174738
-0.0136578
-0.0119222
-0.0136142
-0.017426
-0.0202897
-0.0197121
-0.0161234
-0.0133029
-0.0159919
-0.0263685
-0.0421082
-0.0576508
-0.0678201
-0.0706848
-0.0674232
-0.0601667
-0.0498557
-0.0359737
-0.0186078
-0.00018665
0.0156267
0.0263055
0.0313163
0.0315388
0.0283605
0.0230596
0.0166263
0.0101976
0.00563731
0.00497772
0.0090293
0.0172757
0.0288397
0.0427188
0.0576043
0.072287
0.0860433
0.0981793
0.107665
0.114152
0.11876
0.12265
0.125531
0.12663
0.126502
0.126502
0.126631
0.125532
0.12265
0.11876
0.114152
0.107664
0.098179
0.0860429
0.0722867
0.0576044
0.0427196
0.0288414
0.0172781
0.00903191
0.00497992
0.00563881
0.0101984
0.0166264
0.023059
0.0283594
0.0315372
0.0313146
0.0263039
0.0156257
-0.000186978
-0.0186075
-0.035973
-0.0498547
-0.0601654
-0.067422
-0.0706836
-0.067819
-0.0576497
-0.0421072
-0.0263677
-0.0159912
-0.0133023
-0.016123
-0.0197117
-0.0202893
-0.0174255
-0.0136138
-0.0119219
-0.0136578
-0.0174739
-0.0203644
-0.0196632
-0.0143556
-0.00527106
-0.00594716
-0.0162341
-0.0223371
-0.0232924
-0.0201812
-0.0158771
-0.0136142
-0.0148819
-0.018332
-0.0207023
-0.0193194
-0.0146353
-0.0106532
-0.0124056
-0.0222248
-0.0376776
-0.0528926
-0.0623461
-0.0639236
-0.0589273
-0.0498343
-0.0379131
-0.0228018
-0.00450818
0.0147903
0.0316381
0.043539
0.0499102
0.0515532
0.0497251
0.0455087
0.039663
0.0331104
0.0275568
0.0250014
0.0264318
0.0316063
0.0398089
0.0500976
0.0612673
0.0723238
0.0828182
0.0922743
0.0997389
0.104737
0.108075
0.110656
0.112196
0.112165
0.111396
0.111396
0.112165
0.112196
0.110655
0.108074
0.104737
0.0997388
0.0922743
0.0828184
0.0723242
0.061268
0.0500989
0.039811
0.0316091
0.0264348
0.025004
0.0275585
0.033111
0.0396626
0.0455075
0.0497233
0.0515511
0.0499078
0.0435367
0.0316361
0.0147889
-0.00450889
-0.0228019
-0.037913
-0.0498341
-0.058927
-0.0639232
-0.0623455
-0.0528919
-0.0376769
-0.0222242
-0.012405
-0.0106526
-0.0146347
-0.0193187
-0.0207016
-0.0183313
-0.0148812
-0.0136138
-0.0158769
-0.0201812
-0.0232925
-0.0223372
-0.0162341
-0.00594715
-0.00674365
-0.018496
-0.0257108
-0.0272965
-0.0243786
-0.0199683
-0.017426
-0.018332
-0.0213487
-0.0231265
-0.0208772
-0.0150303
-0.00967697
-0.0100072
-0.0184679
-0.0325986
-0.0463824
-0.0541138
-0.0535845
-0.0462274
-0.0348399
-0.021022
-0.00460541
0.0144917
0.034452
0.0521436
0.0651328
0.0727719
0.0757845
0.0753056
0.0722059
0.0669574
0.0601807
0.0533254
0.0483009
0.046304
0.0474508
0.0512578
0.0569283
0.0634846
0.0702561
0.0771094
0.0837896
0.0894255
0.0933726
0.0960021
0.0978395
0.0985727
0.0978909
0.0967915
0.0967914
0.0978904
0.0985719
0.0978384
0.096001
0.0933718
0.0894252
0.0837899
0.0771102
0.0702574
0.0634863
0.0569304
0.0512604
0.0474538
0.0463073
0.0483038
0.0533273
0.0601813
0.0669567
0.0722041
0.0753031
0.0757817
0.0727689
0.0651297
0.0521407
0.0344495
0.0144899
-0.00460664
-0.0210229
-0.0348406
-0.046228
-0.0535849
-0.0541138
-0.0463821
-0.0325982
-0.0184675
-0.0100067
-0.00967631
-0.0150294
-0.0208761
-0.0231255
-0.0213478
-0.0183313
-0.0174255
-0.019968
-0.0243785
-0.0272965
-0.025711
-0.0184961
-0.00674368
-0.00735358
-0.0202401
-0.02834
-0.0304481
-0.0276991
-0.0231726
-0.0202897
-0.0207023
-0.0231265
-0.0242033
-0.0210815
-0.0141349
-0.00741916
-0.00614924
-0.0128379
-0.0250548
-0.0367631
-0.0422211
-0.0392354
-0.0293892
-0.0157291
-0.000102305
0.0174871
0.0371899
0.0575583
0.0758254
0.0896564
0.0983687
0.102628
0.103438
0.101415
0.0967072
0.0896078
0.0812836
0.0735197
0.0676901
0.0642401
0.0629309
0.0632239
0.0645593
0.0667192
0.069868
0.0738859
0.0779435
0.081229
0.0836589
0.0853471
0.0859254
0.0852165
0.0841903
0.0841899
0.0852153
0.0859237
0.0853454
0.0836573
0.0812279
0.0779432
0.0738865
0.0698695
0.0667214
0.064562
0.0632269
0.062934
0.0642432
0.0676932
0.0735224
0.0812854
0.0896083
0.0967062
0.101413
0.103435
0.102625
0.0983652
0.0896529
0.075822
0.0575552
0.0371874
0.0174851
-0.00010378
-0.0157303
-0.0293901
-0.0392359
-0.0422212
-0.036763
-0.0250545
-0.0128375
-0.00614863
-0.0074183
-0.0141338
-0.0210802
-0.0242021
-0.0231255
-0.0207016
-0.0202893
-0.0231724
-0.0276991
-0.0304482
-0.0283402
-0.0202403
-0.00735365
-0.0075453
-0.0207769
-0.0290952
-0.0312095
-0.028233
-0.0232548
-0.0197121
-0.0193194
-0.0208772
-0.0210815
-0.0170878
-0.00921408
-0.00137307
0.00134483
-0.00356841
-0.0137719
-0.0233513
-0.026673
-0.0216353
-0.00993251
0.00527511
0.0220232
0.0401674
0.0598789
0.0800439
0.098297
0.112484
0.121946
0.127279
0.129286
0.128294
0.124156
0.116898
0.107414
0.0972881
0.0879352
0.0799981
0.0734495
0.0681321
0.0641063
0.0617101
0.061331
0.0628493
0.0654359
0.0681758
0.0706173
0.0725146
0.07344
0.0732439
0.0726549
0.0726543
0.0732424
0.073438
0.0725126
0.0706157
0.0681749
0.065436
0.0628504
0.0613332
0.0617131
0.0641097
0.0681355
0.0734526
0.0800007
0.0879374
0.0972899
0.107415
0.116898
0.124155
0.128292
0.129283
0.127275
0.121943
0.112481
0.098294
0.0800412
0.0598766
0.0401655
0.0220218
0.00527407
-0.00993311
-0.0216355
-0.0266729
-0.0233511
-0.0137716
-0.00356789
0.00134562
-0.00137202
-0.00921282
-0.0170865
-0.0210802
-0.0208761
-0.0193187
-0.0197117
-0.0232546
-0.028233
-0.0312097
-0.0290955
-0.0207771
-0.00754539
-0.0073852
-0.0202846
-0.0282233
-0.0298671
-0.0263063
-0.0205937
-0.0161234
-0.0146353
-0.0150303
-0.0141349
-0.00921408
-0.00057323
0.00809789
0.011997
0.00871877
0.000434849
-0.00726934
-0.00904805
-0.00291909
0.00944522
0.0249624
0.0416718
0.0592932
0.0779606
0.0968711
0.114133
0.127898
0.137593
0.143697
0.146737
0.146744
0.143392
0.136552
0.126831
0.115464
0.103693
0.0921856
0.0810827
0.0706975
0.0618316
0.0553938
0.0518776
0.0510474
0.0520847
0.054098
0.0564207
0.0585527
0.0600311
0.0606504
0.0607242
0.0607236
0.0606489
0.0600292
0.058551
0.0564196
0.0540977
0.0520854
0.0510492
0.0518803
0.0553971
0.0618352
0.0707008
0.0810853
0.0921873
0.103694
0.115464
0.126831
0.136551
0.14339
0.146742
0.146734
0.143694
0.13759
0.127895
0.114131
0.0968695
0.0779592
0.059292
0.0416708
0.0249618
0.00944514
-0.00291882
-0.00904771
-0.00726912
0.000435033
0.00871913
0.0119977
0.0080989
-0.000572005
-0.00921282
-0.0141337
-0.0150294
-0.0146347
-0.016123
-0.0205934
-0.0263063
-0.0298673
-0.0282236
-0.0202848
-0.00738529
-0.00726445
-0.0199096
-0.0275568
-0.0288585
-0.0248881
-0.0186143
-0.0133029
-0.0106532
-0.00967697
-0.00741916
-0.00137307
0.00809789
0.0175607
0.0226261
0.0210752
0.0148161
0.008865
0.00807953
0.0143178
0.0261039
0.0406308
0.0560308
0.07188
0.08825
0.104667
0.119794
0.132192
0.141409
0.147771
0.151505
0.152442
0.150236
0.144691
0.136049
0.125003
0.112421
0.0988704
0.0846388
0.0705251
0.0580366
0.0485359
0.0424879
0.0394993
0.0388538
0.0398475
0.0417567
0.0439306
0.045907
0.0473891
0.0481869
0.0481865
0.0473879
0.0459057
0.0439295
0.0417562
0.0398479
0.0388552
0.0395015
0.0424908
0.0485392
0.0580398
0.0705278
0.0846405
0.0988709
0.11242
0.125002
0.136047
0.144689
0.150234
0.152441
0.151503
0.14777
0.141407
0.132191
0.119793
0.104667
0.0882499
0.0718797
0.0560303
0.0406305
0.0261041
0.0143183
0.00807989
0.008865
0.0148158
0.021075
0.0226262
0.0175614
0.0080989
-0.00137201
-0.00741828
-0.00967629
-0.0106526
-0.0133023
-0.0186138
-0.0248878
-0.0288584
-0.027557
-0.0199098
-0.00726454
-0.00764273
-0.0210237
-0.0293464
-0.0312383
-0.0277263
-0.021629
-0.0159919
-0.0124056
-0.0100072
-0.00614924
0.00134483
0.011997
0.0226261
0.0292887
0.0299619
0.026192
0.0222347
0.022297
0.0281031
0.0385084
0.0511312
0.0642561
0.0773263
0.0903821
0.103326
0.115413
0.12563
0.133624
0.139568
0.14348
0.145161
0.144395
0.140945
0.134569
0.12526
0.113411
0.0994677
0.0838684
0.0678233
0.053351
0.0420445
0.0342236
0.0293901
0.0270833
0.0269326
0.0282522
0.0302895
0.0326072
0.0348338
0.036291
0.0362907
0.034833
0.0326064
0.0302892
0.0282524
0.0269335
0.0270851
0.0293926
0.0342265
0.0420473
0.0533534
0.067825
0.0838691
0.0994671
0.113409
0.125258
0.134567
0.140943
0.144394
0.14516
0.14348
0.139568
0.133624
0.12563
0.115413
0.103327
0.0903828
0.0773266
0.0642559
0.0511308
0.0385083
0.0281032
0.0222969
0.0222341
0.026191
0.0299608
0.0292881
0.0226262
0.0119977
0.00134562
-0.00614862
-0.0100067
-0.012405
-0.0159912
-0.0216282
-0.0277257
-0.0312379
-0.0293464
-0.0210239
-0.00764282
-0.00872173
-0.0242387
-0.0346179
-0.0384186
-0.0365551
-0.0316214
-0.0263685
-0.0222248
-0.0184679
-0.0128379
-0.00356841
0.00871877
0.0210752
0.0299619
0.0334937
0.0327843
0.0312376
0.0323217
0.0376004
0.046328
0.0566505
0.0670663
0.0769222
0.0862664
0.0953822
0.104071
0.111677
0.117905
0.122819
0.126382
0.128527
0.129244
0.128208
0.124615
0.117742
0.107562
0.0944629
0.0790381
0.0627559
0.0478612
0.0359294
0.027081
0.020841
0.0171643
0.0160857
0.0169496
0.0188702
0.0214295
0.024235
0.026224
0.0262239
0.0242348
0.0214294
0.0188704
0.0169502
0.0160869
0.0171661
0.0208434
0.0270836
0.0359317
0.0478629
0.0627568
0.079038
0.0944617
0.10756
0.11774
0.124612
0.128206
0.129243
0.128527
0.126383
0.12282
0.117905
0.111677
0.104072
0.0953831
0.0862671
0.0769224
0.0670659
0.0566498
0.0463274
0.0375998
0.032321
0.0312364
0.0327827
0.0334921
0.0299608
0.021075
0.00871912
-0.00356789
-0.0128375
-0.0184674
-0.0222242
-0.0263676
-0.0316204
-0.0365542
-0.038418
-0.0346178
-0.0242389
-0.00872182
-0.0102931
-0.0289278
-0.0423286
-0.0489576
-0.0495677
-0.04648
-0.0421082
-0.0376776
-0.0325986
-0.0250548
-0.0137719
0.000434849
0.0148161
0.026192
0.0327843
0.0352751
0.0362214
0.0383185
0.0429295
0.049738
0.0575323
0.0651487
0.0719028
0.0778192
0.0834327
0.0889427
0.0939703
0.0982816
0.101914
0.104886
0.107314
0.109326
0.110427
0.10929
0.104652
0.0962607
0.0845582
0.0702611
0.0549007
0.0406603
0.0289051
0.0195781
0.0123844
0.00780638
0.0062645
0.00704173
0.00903334
0.0118094
0.0150233
0.0173873
0.0173874
0.0150235
0.0118099
0.00903413
0.00704272
0.00626579
0.00780814
0.0123866
0.0195804
0.0289071
0.0406616
0.0549012
0.0702607
0.084557
0.0962588
0.10465
0.109287
0.110425
0.109325
0.107314
0.104887
0.101915
0.0982829
0.0939713
0.0889434
0.0834331
0.0778193
0.0719025
0.0651481
0.0575315
0.0497372
0.0429286
0.0383173
0.0362199
0.0352733
0.0327827
0.026191
0.0148158
0.000435021
-0.0137716
-0.0250545
-0.0325982
-0.0376769
-0.0421072
-0.0464788
-0.0495667
-0.048957
-0.0423285
-0.0289279
-0.0102932
-0.0118611
-0.0335923
-0.0499703
-0.0593787
-0.062424
-0.0611575
-0.0576508
-0.0528926
-0.0463824
-0.0367631
-0.0233513
-0.00726934
0.008865
0.0222347
0.0312376
0.0362214
0.0389609
0.0413765
0.0445981
0.0487757
0.0535038
0.058163
0.0621271
0.0652716
0.0681151
0.0710463
0.0739305
0.0766622
0.0793158
0.0819641
0.0847839
0.0878706
0.0904979
0.0909853
0.0878445
0.0808519
0.0705866
0.057813
0.0439341
0.0308539
0.0196295
0.0100978
0.00226539
-0.00283559
-0.0044833
-0.0035549
-0.0014367
0.00141197
0.00476439
0.00728597
0.00728625
0.00476523
0.00141329
-0.00143511
-0.00355321
-0.00448155
-0.00283366
0.00226751
0.0100999
0.0196312
0.0308549
0.0439344
0.0578126
0.0705854
0.0808503
0.0878427
0.0909836
0.0904964
0.0878697
0.0847839
0.0819648
0.0793168
0.0766633
0.0739314
0.0710468
0.068115
0.065271
0.0621263
0.0581622
0.0535032
0.0487753
0.0445975
0.0413756
0.0389595
0.0362199
0.0312364
0.0222341
0.00886498
-0.00726913
-0.0233511
-0.036763
-0.0463821
-0.0528919
-0.0576497
-0.0611562
-0.0624229
-0.0593781
-0.0499702
-0.0335925
-0.0118612
-0.0129661
-0.0368491
-0.0552385
-0.0664935
-0.0711374
-0.0709957
-0.0678201
-0.0623461
-0.0541138
-0.0422211
-0.026673
-0.00904805
0.00807953
0.022297
0.0323217
0.0383185
0.0413765
0.0426835
0.0431619
0.0435039
0.0442782
0.0456066
0.0469836
0.0479661
0.0487662
0.0497915
0.0511853
0.053059
0.0555094
0.0585164
0.0620974
0.0661437
0.0697374
0.071111
0.0688742
0.0630104
0.0542168
0.0431819
0.0310276
0.0192629
0.00862802
-0.00106868
-0.00948293
-0.0151068
-0.0170177
-0.0162722
-0.0144936
-0.0121201
-0.00916708
-0.00683925
-0.00683869
-0.00916546
-0.0121177
-0.0144907
-0.0162692
-0.0170149
-0.0151043
-0.00948063
-0.00106676
0.00862937
0.0192635
0.0310275
0.0431812
0.0542155
0.0630087
0.0688724
0.0711095
0.0697361
0.0661427
0.0620968
0.0585162
0.0555096
0.0530596
0.0511861
0.049792
0.0487661
0.0479653
0.0469826
0.0456058
0.044278
0.0435042
0.0431622
0.0426832
0.0413756
0.0383173
0.032321
0.0222969
0.00807986
-0.00904773
-0.0266729
-0.0422212
-0.0541138
-0.0623455
-0.067819
-0.0709943
-0.0711362
-0.0664929
-0.0552385
-0.0368493
-0.0129662
-0.0134282
-0.038171
-0.0572836
-0.0691481
-0.074269
-0.0742953
-0.0706848
-0.0639236
-0.0535845
-0.0392354
-0.0216353
-0.00291909
0.0143178
0.0281031
0.0376004
0.0429295
0.0445981
0.0431619
0.0394513
0.0348048
0.0308478
0.0284982
0.0273496
0.0265005
0.0256821
0.0252677
0.025762
0.0275493
0.0306486
0.034727
0.0394337
0.0443967
0.0486685
0.05069
0.0493894
0.0449689
0.0381024
0.029244
0.019129
0.00883433
-0.00118013
-0.0110908
-0.0202747
-0.0268959
-0.0299021
-0.0304233
-0.0301295
-0.029294
-0.0276054
-0.0259778
-0.0259768
-0.0276029
-0.0292901
-0.0301249
-0.0304186
-0.0298977
-0.0268923
-0.0202721
-0.0110892
-0.00117948
0.0088341
0.019128
0.0292424
0.0381003
0.0449666
0.0493872
0.0506882
0.0486671
0.0443957
0.0394329
0.0347264
0.0306483
0.0275495
0.0257628
0.0252687
0.0256826
0.0265002
0.0273489
0.0284977
0.0308481
0.0348058
0.0394523
0.0431622
0.0445975
0.0429286
0.0375998
0.0281032
0.0143183
-0.00291884
-0.0216355
-0.0392359
-0.0535849
-0.0639232
-0.0706836
-0.0742936
-0.0742676
-0.0691474
-0.0572836
-0.0381713
-0.0134284
-0.0133188
-0.0377928
-0.0565382
-0.0679865
-0.0726648
-0.0720842
-0.0674232
-0.0589273
-0.0462274
-0.0293892
-0.00993251
0.00944522
0.0261039
0.0385084
0.046328
0.049738
0.0487757
0.0435039
0.0348048
0.0247241
0.0158769
0.00986065
0.00628222
0.00373357
0.00145264
-0.000180708
-0.000234961
0.00194434
0.00618088
0.0116605
0.0175667
0.0233313
0.0282047
0.0310816
0.0312869
0.0291123
0.0250082
0.0190525
0.0115307
0.00307989
-0.00609342
-0.0161629
-0.0263592
-0.0346985
-0.0400266
-0.0433393
-0.0460593
-0.0480914
-0.0486784
-0.0483148
-0.0483135
-0.0486749
-0.0480861
-0.046053
-0.0433328
-0.0400207
-0.0346939
-0.0263564
-0.0161619
-0.00609389
0.00307828
0.0115284
0.0190498
0.0250053
0.0291093
0.0312842
0.0310795
0.0282034
0.0233306
0.0175663
0.0116602
0.00618078
0.00194474
-0.000233907
-0.000179266
0.00145384
0.00373403
0.00628202
0.0098604
0.0158772
0.0247251
0.0348058
0.0435042
0.0487752
0.0497372
0.0463274
0.0385083
0.026104
0.00944512
-0.00993313
-0.0293901
-0.046228
-0.058927
-0.067422
-0.0720825
-0.0726633
-0.0679857
-0.0565381
-0.037793
-0.013319
-0.0127907
-0.0361803
-0.0537952
-0.0641328
-0.0677778
-0.0661492
-0.0601667
-0.0498343
-0.0348399
-0.0157291
0.00527511
0.0249624
0.0406308
0.0511312
0.0566505
0.0575323
0.0535038
0.0442782
0.0308478
0.0158769
0.00275654
-0.00643264
-0.0121266
-0.0161697
-0.0197232
-0.0223692
-0.0227952
-0.0201531
-0.0148716
-0.00825715
-0.00153608
0.00466892
0.0100053
0.0139614
0.0162203
0.0169861
0.016328
0.0138879
0.00949833
0.00336328
-0.00456595
-0.0145225
-0.0257585
-0.0363265
-0.044977
-0.0523444
-0.0593103
-0.0652321
-0.0688385
-0.0701435
-0.0701421
-0.0688344
-0.0652261
-0.0593031
-0.0523369
-0.0449703
-0.0363215
-0.0257558
-0.0145222
-0.00456768
0.00336019
0.0094946
0.0138841
0.0163244
0.0169828
0.0162176
0.0139594
0.0100044
0.0046689
-0.00153558
-0.00825651
-0.0148709
-0.0201522
-0.0227939
-0.0223675
-0.0197217
-0.0161688
-0.0121264
-0.00643274
0.00275661
0.0158772
0.0308481
0.044278
0.0535032
0.0575315
0.0566498
0.0511308
0.0406305
0.0249618
0.00527405
-0.0157303
-0.0348406
-0.0498341
-0.0601655
-0.0661475
-0.0677763
-0.0641319
-0.053795
-0.0361805
-0.0127909
-0.0119072
-0.033515
-0.0493408
-0.0579776
-0.0601225
-0.057177
-0.0498557
-0.0379131
-0.021022
-0.000102305
0.0220232
0.0416718
0.0560308
0.0642561
0.0670663
0.0651487
0.058163
0.0456066
0.0284982
0.00986065
-0.00643264
-0.0179777
-0.0252128
-0.0302602
-0.0345708
-0.0377501
-0.0382971
-0.0353145
-0.0294585
-0.022381
-0.0155502
-0.00950329
-0.00408992
0.000797309
0.00510569
0.00881214
0.0115563
0.012601
0.0114064
0.007792
0.00145883
-0.00795059
-0.0198646
-0.032538
-0.0446527
-0.0563374
-0.0677653
-0.0776905
-0.0843672
-0.0873672
-0.0873658
-0.0843633
-0.0776847
-0.0677584
-0.0563303
-0.0446464
-0.0325336
-0.0198626
-0.00795115
0.00145615
0.00778794
0.0114019
0.0125968
0.0115527
0.00880929
0.00510361
0.000796091
-0.00409017
-0.00950264
-0.0155489
-0.0223795
-0.0294571
-0.0353131
-0.0382957
-0.0377487
-0.0345697
-0.0302595
-0.0252125
-0.0179777
-0.00643274
0.0098604
0.0284977
0.0456058
0.0581622
0.065148
0.0670659
0.0642559
0.0560303
0.0416708
0.0220218
-0.000103781
-0.0210229
-0.037913
-0.0498547
-0.0571755
-0.0601211
-0.0579768
-0.0493406
-0.0335152
-0.0119074
-0.010604
-0.0295941
-0.0428254
-0.0490432
-0.0491359
-0.0445837
-0.0359737
-0.0228018
-0.00460541
0.0174871
0.0401674
0.0592932
0.07188
0.0773263
0.0769222
0.0719028
0.0621271
0.0469836
0.0273496
0.00628222
-0.0121266
-0.0252128
-0.0332976
-0.0386138
-0.0428441
-0.04576
-0.0459337
-0.0425775
-0.0365044
-0.0295096
-0.0231409
-0.0177901
-0.0128158
-0.00754667
-0.00185469
0.00396357
0.00918356
0.012842
0.0141839
0.0127601
0.00808192
-0.000344148
-0.0122161
-0.0261188
-0.0407385
-0.0557071
-0.0705224
-0.0834506
-0.0924305
-0.0967158
-0.0967147
-0.0924274
-0.0834461
-0.0705171
-0.0557017
-0.0407339
-0.0261157
-0.0122151
-0.000345267
0.00807898
0.012756
0.0141796
0.0128381
0.00918067
0.00396172
-0.00185567
-0.00754692
-0.0128154
-0.0177891
-0.0231395
-0.0295079
-0.0365027
-0.042576
-0.0459324
-0.0457591
-0.0428436
-0.0386136
-0.0332974
-0.0252125
-0.0121264
0.00628203
0.0273489
0.0469826
0.0621263
0.0719025
0.0769224
0.0773266
0.0718797
0.059292
0.0401655
0.0174851
-0.00460663
-0.0228019
-0.035973
-0.0445826
-0.0491349
-0.0490428
-0.0428255
-0.0295944
-0.0106041
-0.00889891
-0.0244679
-0.0343269
-0.0374362
-0.0349491
-0.0284996
-0.0186078
-0.00450818
0.0144917
0.0371899
0.0598789
0.0779606
0.08825
0.0903821
0.0862664
0.0778192
0.0652716
0.0479661
0.0265005
0.00373357
-0.0161697
-0.0302602
-0.0386138
-0.0434697
-0.0467536
-0.0485519
-0.0477204
-0.0436884
-0.0373511
-0.0305014
-0.0246971
-0.0202316
-0.0160807
-0.0111054
-0.00503588
0.00160361
0.00786273
0.0127422
0.0154613
0.0154647
0.0121904
0.0050569
-0.00592474
-0.0197407
-0.0351802
-0.0515172
-0.0677772
-0.0819809
-0.0919786
-0.0968686
-0.0968679
-0.0919768
-0.0819784
-0.0677743
-0.0515144
-0.0351779
-0.0197393
-0.00592465
0.00505563
0.012188
0.0154615
0.015458
0.0127393
0.00786077
0.00160271
-0.00503593
-0.011105
-0.01608
-0.0202308
-0.0246962
-0.0305003
-0.0373499
-0.043687
-0.0477192
-0.0485513
-0.0467536
-0.04347
-0.0386136
-0.0302595
-0.0161688
0.00373404
0.0265002
0.0479653
0.065271
0.0778192
0.0862671
0.0903828
0.0882499
0.0779592
0.0598766
0.0371874
0.0144899
-0.00450888
-0.0186075
-0.0284989
-0.0349485
-0.0374361
-0.0343273
-0.0244683
-0.00889911
-0.00709205
-0.0190305
-0.025303
-0.0251018
-0.0198664
-0.0114033
-0.00018665
0.0147903
0.034452
0.0575583
0.0800439
0.0968711
0.104667
0.103326
0.0953822
0.0834327
0.0681151
0.0487662
0.0256821
0.00145264
-0.0197232
-0.0345708
-0.0428441
-0.0467536
-0.0485038
-0.0485937
-0.0462747
-0.0412376
-0.0344067
-0.0274965
-0.0220634
-0.0183797
-0.0151746
-0.010959
-0.00534562
0.000992563
0.00702215
0.0118658
0.0148718
0.0155272
0.0133122
0.0076194
-0.00180214
-0.0143396
-0.0289522
-0.0447288
-0.0604805
-0.0742478
-0.084004
-0.0888333
-0.0888332
-0.0840036
-0.0742474
-0.0604802
-0.0447286
-0.0289523
-0.01434
-0.00180288
0.00761827
0.0133107
0.0155253
0.0148698
0.011864
0.00702095
0.000992158
-0.00534532
-0.0109583
-0.0151739
-0.0183793
-0.0220632
-0.0274963
-0.0344061
-0.0412365
-0.0462736
-0.048593
-0.0485037
-0.0467536
-0.0428436
-0.0345697
-0.0197217
0.00145385
0.0256826
0.0487661
0.068115
0.0834331
0.0953831
0.103326
0.104667
0.0968695
0.0800412
0.0575553
0.0344495
0.0147889
-0.000186966
-0.0114031
-0.0198662
-0.025102
-0.0253035
-0.0190311
-0.00709228
-0.00563792
-0.0146342
-0.0179463
-0.0149399
-0.00729127
0.00304438
0.0156267
0.0316381
0.0521436
0.0758254
0.098297
0.114133
0.119794
0.115413
0.104071
0.0889427
0.0710463
0.0497915
0.0252677
-0.000180708
-0.0223692
-0.0377501
-0.04576
-0.0485519
-0.0485937
-0.0468213
-0.0429307
-0.0368937
-0.0296298
-0.0227098
-0.0176259
-0.0146245
-0.0122827
-0.00889618
-0.0040232
0.00155484
0.00680454
0.0110416
0.0138105
0.0147194
0.0133538
0.0091209
0.00156574
-0.00902963
-0.0217945
-0.0357608
-0.0497363
-0.061974
-0.0706952
-0.0750461
-0.0750464
-0.0706962
-0.0619756
-0.0497383
-0.035763
-0.0217966
-0.00903152
0.00156425
0.00911987
0.0133531
0.0147189
0.0138098
0.0110408
0.00680383
0.00155452
-0.00402302
-0.00889564
-0.0122821
-0.0146243
-0.017626
-0.02271
-0.0296296
-0.0368929
-0.0429295
-0.0468203
-0.048593
-0.0485513
-0.0457591
-0.0377487
-0.0223675
-0.000179256
0.0252687
0.049792
0.0710468
0.0889433
0.104072
0.115413
0.119793
0.114131
0.098294
0.075822
0.0521407
0.0316361
0.0156257
0.003044
-0.00729149
-0.0149402
-0.0179468
-0.0146347
-0.00563811
-0.00487264
-0.0122691
-0.0138356
-0.00899395
0.000429968
0.0123501
0.0263055
0.043539
0.0651328
0.0896564
0.112484
0.127898
0.132192
0.12563
0.111677
0.0939703
0.0739305
0.0511853
0.025762
-0.000234961
-0.0227952
-0.0382971
-0.0459337
-0.0477204
-0.0462747
-0.0429307
-0.0378566
-0.0313259
-0.0242187
-0.0178545
-0.0135
-0.0112641
-0.00961853
-0.0068032
-0.00243918
0.00256892
0.00720641
0.0109705
0.0135818
0.0147705
0.0142318
0.0114053
0.00570862
-0.00279316
-0.0133489
-0.0250064
-0.0367039
-0.0470005
-0.0543969
-0.0581164
-0.0581171
-0.054399
-0.0470037
-0.0367079
-0.0250107
-0.0133529
-0.00279649
0.00570628
0.0114041
0.0142316
0.0147708
0.0135822
0.0109706
0.00720621
0.00256871
-0.00243914
-0.00680282
-0.009618
-0.0112637
-0.0134999
-0.0178545
-0.0242185
-0.0313252
-0.0378554
-0.0429295
-0.0462736
-0.0477192
-0.0459324
-0.0382957
-0.0227939
-0.000233897
0.0257628
0.0511861
0.0739314
0.0939712
0.111677
0.12563
0.132191
0.127895
0.112481
0.0896529
0.0651297
0.0435367
0.0263039
0.0123492
0.000429434
-0.00899431
-0.0138359
-0.0122693
-0.00487272
-0.00491484
-0.0122653
-0.0134485
-0.00781178
0.00274535
0.0159841
0.0313163
0.0499102
0.0727719
0.0983687
0.121946
0.137593
0.141409
0.133624
0.117905
0.0982816
0.0766622
0.053059
0.0275493
0.00194434
-0.0201531
-0.0353145
-0.0425775
-0.0436884
-0.0412376
-0.0368937
-0.0313259
-0.0251259
-0.0190749
-0.0140877
-0.0109998
-0.00965687
-0.00849415
-0.00589153
-0.00167543
0.00310912
0.00748702
0.0111139
0.0138367
0.0154668
0.0157831
0.0142719
0.0103143
0.00388219
-0.00433844
-0.0134667
-0.0226632
-0.030836
-0.0367684
-0.0397747
-0.0397758
-0.0367716
-0.0308408
-0.0226689
-0.0134728
-0.00434418
0.0038774
0.0103109
0.0142702
0.0157828
0.0154677
0.0138379
0.011115
0.00748768
0.00310944
-0.00167516
-0.0058911
-0.00849355
-0.00965625
-0.0109992
-0.0140873
-0.0190744
-0.0251252
-0.0313252
-0.0368929
-0.0412365
-0.0436869
-0.0425759
-0.0353131
-0.0201522
0.00194475
0.0275496
0.0530596
0.0766633
0.0982829
0.117905
0.133624
0.141407
0.13759
0.121943
0.0983652
0.0727689
0.0499078
0.0313146
0.015983
0.00274469
-0.00781208
-0.0134486